/*--------------------------------*- C++ -*----------------------------------*\
  =========                 |
  \\      /  F ield         | OpenFOAM: The Open Source CFD Toolbox
   \\    /   O peration     | Website:  https://openfoam.org
    \\  /    A nd           | Version:  12
     \\/     M anipulation  |
\*---------------------------------------------------------------------------*/
FoamFile
{
    format      ascii;
    class       volScalarField;
    location    "11500";
    object      k;
}
// * * * * * * * * * * * * * * * * * * * * * * * * * * * * * * * * * * * * * //

dimensions      [0 2 -2 0 0 0 0];

internalField   nonuniform List<scalar> 
24749
(
0.201465
0.0782431
0.071126
0.0708031
0.070786
0.0707777
0.0707719
0.265435
0.0886464
0.0490708
0.0429167
0.0417772
0.0414907
0.0414191
0.238285
0.08128
0.0343824
0.0259506
0.0248432
0.0246885
0.0246339
0.217119
0.104158
0.0313828
0.0187736
0.0172841
0.0171349
0.0170815
0.202151
0.132706
0.0366589
0.0155392
0.0131934
0.0130077
0.0129615
0.192629
0.15692
0.0498102
0.0148227
0.0107196
0.0104323
0.0103868
0.1874
0.172877
0.0659093
0.0164004
0.00919316
0.00868535
0.00863663
0.184416
0.181284
0.0835419
0.0204556
0.00833407
0.00743339
0.00737551
0.182487
0.185301
0.101633
0.0279724
0.00811311
0.0065046
0.00642663
0.181345
0.187244
0.117285
0.0385869
0.00868624
0.00580829
0.00568764
0.180163
0.18841
0.129183
0.0512681
0.0102998
0.00530472
0.00509884
0.179467
0.188843
0.137543
0.0644968
0.0131034
0.00498075
0.00461918
0.178959
0.188767
0.143396
0.0771778
0.0172761
0.00485767
0.00422411
0.178074
0.188477
0.147815
0.0889488
0.0233603
0.00500728
0.00389727
0.177814
0.187968
0.15107
0.0991728
0.0311091
0.00545872
0.0036254
0.17908
0.187223
0.152976
0.107083
0.0394309
0.00622072
0.00340232
0.180719
0.187135
0.154689
0.113096
0.047826
0.0073799
0.00322691
0.204675
0.179055
0.149487
0.11186
0.0521839
0.00886065
0.00315117
0.222912
0.181788
0.145974
0.105405
0.0487613
0.00880484
0.00340529
0.213231
0.178828
0.149278
0.112693
0.0535376
0.00912276
0.0032061
0.255055
0.165423
0.134632
0.095763
0.045678
0.00975996
0.00376805
0.264573
0.156185
0.127324
0.0933181
0.0481553
0.0134853
0.00425808
0.223148
0.164113
0.131023
0.0989295
0.0559448
0.0181369
0.00534921
0.175352
0.167617
0.136446
0.106451
0.0664953
0.0267189
0.00828686
0.192968
0.169036
0.139834
0.110632
0.0671851
0.0230545
0.00605584
0.129767
0.178549
0.14379
0.115872
0.0791012
0.0384578
0.0135551
0.153711
0.172083
0.142853
0.114485
0.0745313
0.0319174
0.00992955
0.0948663
0.189278
0.15023
0.123785
0.0908667
0.0503337
0.0203054
0.116647
0.173832
0.146156
0.119514
0.0838354
0.042737
0.0153014
0.078662
0.19718
0.153735
0.127109
0.0964282
0.0576903
0.0253683
0.0929755
0.173638
0.147523
0.123666
0.0918863
0.0523825
0.0208374
0.0762081
0.197783
0.156322
0.127881
0.0975872
0.0588688
0.0260637
0.086152
0.173821
0.149618
0.125017
0.0940799
0.0556962
0.0234354
0.0830854
0.192298
0.153982
0.126819
0.0956089
0.0561083
0.0240596
0.0869405
0.172958
0.150284
0.125852
0.0948118
0.0556976
0.0233509
0.101635
0.187043
0.149229
0.122359
0.089207
0.0488479
0.0184835
0.0973402
0.174709
0.14875
0.123849
0.0910395
0.0511809
0.020101
0.131322
0.178648
0.144029
0.116566
0.0800655
0.0389952
0.0133923
0.117624
0.175888
0.147038
0.12023
0.0849339
0.0435325
0.0152273
0.177656
0.168874
0.136128
0.106998
0.0665602
0.0259346
0.0080815
0.150699
0.173108
0.1441
0.11598
0.0761592
0.0328819
0.0102396
0.233714
0.15959
0.13223
0.0993116
0.0544209
0.0156028
0.00470284
0.219766
0.177302
0.146222
0.11181
0.0595716
0.0132939
0.00380212
0.185791
0.176383
0.144228
0.111948
0.0656637
0.0204397
0.00535387
0.234175
0.169959
0.140423
0.106775
0.0566334
0.015087
0.0041105
0.201383
0.0782704
0.0711303
0.0708041
0.0707865
0.070778
0.0707711
0.265134
0.0887672
0.0490094
0.042812
0.0416804
0.0413841
0.0412508
0.253109
0.079832
0.0390162
0.0322386
0.0312925
0.0311063
0.0310349
0.260615
0.0886539
0.0445939
0.0370641
0.0359219
0.0356788
0.0355579
0.238631
0.0813489
0.0341673
0.025797
0.0247252
0.0245633
0.0244884
0.246677
0.085236
0.0375991
0.0288232
0.0276519
0.0274678
0.0273979
0.226477
0.0911226
0.0318586
0.0215857
0.020321
0.0201657
0.0200946
0.232129
0.0888614
0.0338867
0.023619
0.0223101
0.0221484
0.0220689
0.217129
0.105122
0.0316563
0.0187501
0.0172076
0.0170451
0.016977
0.221157
0.0995876
0.0324988
0.0201492
0.0186381
0.0184752
0.0183994
0.208966
0.119667
0.0335213
0.0168544
0.0149112
0.0147302
0.0146693
0.212164
0.113292
0.0332949
0.0178284
0.0159834
0.0158062
0.0157382
0.20193
0.133894
0.0375389
0.0156844
0.013165
0.0129489
0.0128926
0.204499
0.12737
0.0362951
0.0163401
0.0139898
0.0137856
0.0137253
0.19626
0.146873
0.0439455
0.0151682
0.0118112
0.0115379
0.0114833
0.198127
0.140718
0.0415557
0.0155378
0.0124562
0.0122051
0.0121479
0.191995
0.157989
0.0513139
0.0152764
0.0107532
0.010395
0.0103402
0.19328
0.152564
0.0482778
0.015345
0.0112601
0.0109381
0.0108824
0.188912
0.166956
0.0592335
0.0159623
0.00993025
0.00945274
0.00939578
0.189735
0.162432
0.0558123
0.0157317
0.0103243
0.00990224
0.00984583
0.186687
0.173685
0.0676678
0.0172377
0.00930332
0.00866473
0.00860404
0.187207
0.170174
0.0638853
0.0167068
0.00960221
0.00904193
0.00898269
0.185034
0.178487
0.0764715
0.0191422
0.0088437
0.00799771
0.00792993
0.185382
0.175854
0.0723994
0.0182879
0.00906047
0.00831783
0.00825332
0.183726
0.181801
0.0856371
0.021824
0.00855412
0.00742835
0.00735127
0.184
0.179834
0.0812779
0.0205745
0.00868459
0.00770213
0.00762974
0.182649
0.184063
0.0949833
0.0254548
0.00843836
0.00693926
0.00684859
0.182852
0.182558
0.0905125
0.0237463
0.00848233
0.00717482
0.00709113
0.181821
0.185664
0.103846
0.0300829
0.00851531
0.00651752
0.00640827
0.181963
0.184466
0.0995681
0.0278337
0.00845744
0.00672064
0.00662109
0.181138
0.186787
0.112005
0.0353267
0.00880154
0.0061542
0.00601953
0.181247
0.18582
0.108066
0.0327646
0.00863903
0.00632933
0.00620805
0.180577
0.187588
0.119232
0.0411512
0.00932432
0.00584285
0.00567419
0.180648
0.186774
0.115742
0.0383021
0.00904061
0.00599246
0.00584185
0.180069
0.188169
0.12544
0.0474577
0.0101241
0.00558183
0.00536577
0.180141
0.187477
0.122442
0.044389
0.00970498
0.00570712
0.00551571
0.179619
0.188572
0.130647
0.0540599
0.0112125
0.0053673
0.00508875
0.179668
0.187993
0.128123
0.0508497
0.0106529
0.0054703
0.00522365
0.179199
0.188825
0.135015
0.060694
0.0126071
0.00520025
0.00483905
0.179267
0.188332
0.132879
0.0574849
0.011905
0.00528068
0.00496085
0.178793
0.188943
0.138677
0.067255
0.0143383
0.00508373
0.0046129
0.178864
0.188522
0.136859
0.0640879
0.0134762
0.00513884
0.00472324
0.178482
0.188927
0.141759
0.0736521
0.0164237
0.00502229
0.00440785
0.17852
0.188582
0.14019
0.0705456
0.0153777
0.00504747
0.00450781
0.178275
0.188767
0.14438
0.0798101
0.0188854
0.00501454
0.00422106
0.178283
0.188498
0.143009
0.0767828
0.0176285
0.00500648
0.00431183
0.178097
0.188539
0.14661
0.0857398
0.0218456
0.00507646
0.00405118
0.17811
0.188328
0.145405
0.0828271
0.0203359
0.00502869
0.0041336
0.177899
0.188313
0.148541
0.0913249
0.025427
0.00522794
0.00389736
0.177913
0.188145
0.14749
0.0885755
0.0236099
0.00513445
0.00397199
0.177662
0.18812
0.150235
0.0965158
0.0293558
0.00549178
0.00375952
0.177695
0.187968
0.149309
0.0939772
0.0273938
0.00534785
0.00382668
0.177471
0.187858
0.151654
0.101215
0.0335193
0.00584554
0.0036342
0.177438
0.187757
0.150843
0.0989521
0.0314942
0.00567637
0.00369677
0.177857
0.187438
0.15271
0.105314
0.037691
0.00623059
0.00351894
0.17744
0.187446
0.152113
0.103353
0.0356414
0.0060369
0.00357527
0.179014
0.186818
0.153263
0.108655
0.0418473
0.00671169
0.00341655
0.178082
0.187043
0.153032
0.107184
0.0398602
0.00647317
0.00346657
0.18007
0.186319
0.15353
0.111397
0.0460721
0.00739364
0.00333497
0.179232
0.186545
0.153549
0.110387
0.044199
0.00710688
0.00337898
0.180485
0.185784
0.153582
0.113537
0.0502639
0.00833279
0.00328404
0.179874
0.186074
0.153808
0.113085
0.0486896
0.008032
0.0033221
0.18
0.187062
0.154683
0.115422
0.0537723
0.00910946
0.0032223
0.180798
0.185676
0.153783
0.114918
0.0525562
0.00884036
0.00325441
0.186199
0.187953
0.155147
0.11485
0.0554248
0.0104153
0.00328773
0.209085
0.168951
0.140768
0.102463
0.051902
0.0126469
0.00384295
0.184023
0.184538
0.152688
0.113709
0.0548207
0.0101054
0.00329125
0.187538
0.0818378
0.0730724
0.0723066
0.0722083
0.0721724
0.0721583
0.184438
0.0824313
0.0735501
0.0726615
0.0725381
0.072509
0.0725004
0.181453
0.0826727
0.0740882
0.073229
0.073105
0.073075
0.0730663
0.183279
0.082522
0.0737346
0.0728635
0.0727404
0.0727107
0.0727022
0.185181
0.0823672
0.0734001
0.0725106
0.0723889
0.0723608
0.0723523
0.187071
0.0818722
0.0731828
0.0724272
0.0723322
0.0722972
0.0722845
0.260891
0.0889014
0.0448343
0.0372486
0.0360778
0.0358418
0.0357841
0.252838
0.079879
0.0391944
0.0323789
0.0314123
0.031233
0.0311955
0.246391
0.0853281
0.037905
0.0290129
0.0277971
0.0276244
0.0275823
0.226268
0.0905025
0.0318689
0.0216855
0.0204164
0.0202716
0.020216
0.208961
0.118541
0.0329715
0.0168026
0.0149659
0.0148039
0.0147556
0.196749
0.145712
0.0426193
0.0148892
0.01181
0.0115853
0.0115403
0.189633
0.165975
0.0576221
0.01533
0.00986121
0.00948146
0.00943469
0.185698
0.177859
0.0745662
0.0180811
0.00868697
0.00801078
0.00795831
0.183334
0.183638
0.092766
0.023678
0.00813517
0.00693571
0.00686978
0.181855
0.186434
0.109896
0.0329891
0.00829169
0.00613123
0.00603525
0.180768
0.18791
0.123711
0.0447225
0.0093438
0.00553351
0.00537745
0.179752
0.188714
0.133752
0.057917
0.0115516
0.00512036
0.00484723
0.179249
0.188831
0.140698
0.0709264
0.0149874
0.00488918
0.00441212
0.17852
0.18864
0.145756
0.0832096
0.0200385
0.00489606
0.00405318
0.177824
0.188276
0.149593
0.0942929
0.0271184
0.00519975
0.00375527
0.17827
0.187591
0.152187
0.10346
0.0352499
0.00579655
0.00350796
0.179754
0.18721
0.153859
0.110337
0.043664
0.0067491
0.00330877
0.188489
0.183937
0.153257
0.113853
0.0512345
0.00817029
0.00316616
0.274833
0.0692583
0.0580064
0.0575328
0.0575026
0.0574405
0.0574716
0.238342
0.069704
0.0583698
0.0577415
0.0577902
0.0578721
0.0579957
0.18808
0.0818738
0.0726822
0.0718083
0.0716919
0.0716637
0.0716539
0.23437
0.0700164
0.0595521
0.058926
0.0589521
0.0590321
0.0591564
0.181761
0.0826151
0.074042
0.0731896
0.0730662
0.0730359
0.0730264
0.237938
0.0695978
0.0586169
0.0579656
0.0579942
0.0580779
0.058174
0.231868
0.0701708
0.0599174
0.0593094
0.0593379
0.0594179
0.0594927
0.18255
0.0826308
0.0739084
0.0730217
0.0728963
0.0728666
0.0728575
0.183828
0.0824421
0.0736436
0.0727776
0.072655
0.0726252
0.0726158
0.187687
0.0818769
0.0727711
0.0719079
0.0717928
0.0717646
0.0717547
0.274633
0.0692783
0.0580816
0.0576134
0.0575829
0.057527
0.0576037
0.232031
0.0885336
0.0339685
0.0237451
0.0224275
0.0222767
0.0222172
0.212259
0.112174
0.0327653
0.0177903
0.0160478
0.0158914
0.0158388
0.198675
0.13952
0.0402509
0.015264
0.0124652
0.0122587
0.0122118
0.190567
0.161493
0.0541294
0.0151454
0.0102691
0.00993522
0.00988899
0.186206
0.175228
0.0705111
0.0172976
0.00892384
0.00833453
0.00828436
0.183673
0.182197
0.0882844
0.0220893
0.00821358
0.00717525
0.0071139
0.182021
0.185577
0.105864
0.0304758
0.00816973
0.0063106
0.00622504
0.180976
0.187296
0.120595
0.0416694
0.00898059
0.00566512
0.00552832
0.179859
0.188312
0.131529
0.0546509
0.0108981
0.00520782
0.00496985
0.179302
0.188626
0.139119
0.0677531
0.0140046
0.00492841
0.00451322
0.178683
0.188518
0.144565
0.0802934
0.0186837
0.00488014
0.00413736
0.177888
0.188198
0.148655
0.0916734
0.0252306
0.00509509
0.00382485
0.177954
0.187584
0.151495
0.101306
0.0331773
0.00561527
0.00356545
0.179393
0.187059
0.153348
0.108817
0.0416029
0.00647431
0.00335437
0.182982
0.1862
0.154331
0.113773
0.0498572
0.00782233
0.00319478
0.231837
0.0701757
0.0598125
0.0591829
0.0592132
0.0592947
0.0594105
0.194031
0.151481
0.0466904
0.0149242
0.0112376
0.0109804
0.0109346
0.188084
0.16937
0.0621084
0.01593
0.00950882
0.00906637
0.00901887
0.184779
0.179361
0.0792374
0.0193054
0.00849166
0.00771095
0.00765624
0.182738
0.184179
0.0973076
0.0258323
0.00809505
0.00671188
0.00664082
0.181485
0.18655
0.113683
0.0357729
0.008449
0.00596294
0.00585632
0.180368
0.187898
0.12654
0.0480542
0.00980074
0.00541512
0.00523463
0.179548
0.188544
0.135664
0.0612418
0.0122838
0.00504398
0.00473034
0.179055
0.188612
0.142038
0.0741253
0.0161223
0.00487061
0.00431628
0.178227
0.188372
0.146765
0.0861681
0.0217269
0.00495554
0.00397423
0.177764
0.187928
0.15024
0.096782
0.0290919
0.00531459
0.00368911
0.178554
0.187259
0.152508
0.105318
0.0373587
0.00599925
0.00345407
0.180056
0.187048
0.154169
0.111783
0.0458175
0.00706329
0.00326674
0.194912
0.183366
0.152337
0.114378
0.0528004
0.00861861
0.00314658
0.204715
0.12616
0.0354244
0.0162015
0.0140281
0.0138524
0.0138039
0.221164
0.0986276
0.0322231
0.0201929
0.0187286
0.0185813
0.0185228
0.238158
0.0697354
0.0585133
0.057898
0.0579472
0.0580265
0.0580953
0.235847
0.0698847
0.0591696
0.058533
0.058561
0.0586409
0.0587313
0.232796
0.0700851
0.0595644
0.0589264
0.0589573
0.0590378
0.0591161
0.233752
0.0699886
0.0593882
0.0587611
0.0587922
0.0588759
0.0590131
0.238531
0.0695675
0.058579
0.0579342
0.0579625
0.0580466
0.0581704
0.241413
0.097287
0.0421797
0.0298796
0.0277468
0.0274105
0.0273438
0.261224
0.0769748
0.0509542
0.0475898
0.0471994
0.0471914
0.0472166
0.186784
0.156944
0.0591548
0.0195597
0.0129728
0.0122932
0.0122104
0.209348
0.120856
0.0426785
0.0224134
0.0189772
0.0185208
0.0184448
0.181047
0.17383
0.075159
0.02128
0.0109535
0.00999112
0.00989953
0.179045
0.183292
0.0934044
0.0261385
0.00988667
0.0084096
0.00829702
0.178383
0.187751
0.110898
0.0349757
0.00972301
0.00728191
0.00712786
0.177978
0.189362
0.125189
0.0465983
0.0105896
0.00647517
0.00623978
0.178057
0.189572
0.135107
0.0593991
0.0125288
0.00591337
0.00554491
0.17722
0.18943
0.142054
0.072309
0.0158802
0.00560605
0.00499135
0.1773
0.18859
0.146685
0.0843189
0.0205951
0.00553541
0.00454065
0.176856
0.187872
0.149934
0.0949024
0.0272311
0.00575753
0.00417427
0.175771
0.187187
0.15244
0.10406
0.0356742
0.00648498
0.00388513
0.176024
0.186334
0.15395
0.111032
0.0443867
0.00761275
0.00365793
0.177875
0.185441
0.154541
0.115586
0.052458
0.00896642
0.00347791
0.178007
0.18621
0.156163
0.12019
0.0611351
0.011205
0.00338971
0.257907
0.0778311
0.0530727
0.0498174
0.0494389
0.0494393
0.0495122
0.191844
0.145912
0.0524607
0.0197481
0.0144608
0.0138708
0.0137894
0.189035
0.151304
0.0550062
0.0193454
0.0136519
0.0130359
0.0129509
0.298976
0.0943072
0.0581919
0.0512425
0.0497559
0.0493469
0.0492268
0.207483
0.174188
0.145491
0.110245
0.0581543
0.0131598
0.00367557
0.258086
0.0780738
0.0533907
0.0501426
0.0497557
0.0497517
0.0497955
0.258048
0.0686484
0.0453506
0.0426709
0.042433
0.0424889
0.0426243
0.183317
0.166368
0.066771
0.020063
0.0118269
0.0110276
0.0109415
0.181841
0.17013
0.0706872
0.0205136
0.0113599
0.0104859
0.0103957
0.159995
0.170789
0.139601
0.109749
0.0683917
0.0269551
0.00798625
0.134649
0.172752
0.141074
0.11336
0.0761083
0.0357578
0.0117665
0.144515
0.173076
0.14459
0.115202
0.0738461
0.0307479
0.00927832
0.115925
0.174668
0.141698
0.117182
0.0833999
0.0436818
0.0153129
0.123882
0.170468
0.142871
0.116963
0.0807497
0.0397455
0.0134196
0.110436
0.17622
0.142354
0.118021
0.0855235
0.0467257
0.0170784
0.112628
0.170039
0.143182
0.118685
0.0853461
0.0452217
0.0164218
0.111554
0.175663
0.143956
0.118867
0.0862662
0.0467546
0.0172093
0.11225
0.170948
0.1438
0.118645
0.0852181
0.0459762
0.017026
0.119982
0.174504
0.143502
0.117592
0.0830612
0.0433066
0.0151398
0.115365
0.169781
0.145843
0.120593
0.0862289
0.0454635
0.0163914
0.135008
0.174988
0.14255
0.114511
0.0776073
0.0367359
0.0119297
0.126005
0.173541
0.145521
0.118144
0.081662
0.0405031
0.0136466
0.160113
0.172115
0.140386
0.110928
0.0695994
0.0275605
0.008217
0.142549
0.174058
0.145081
0.116913
0.077532
0.0339202
0.0103897
0.262898
0.0784525
0.0523957
0.048807
0.0483503
0.0483316
0.0484003
0.261687
0.0677572
0.0436766
0.0408327
0.040557
0.0405981
0.0406732
0.263114
0.0900739
0.0464518
0.0375187
0.0359188
0.0356238
0.0356134
0.241189
0.097424
0.0420323
0.0296109
0.0274107
0.0270805
0.0270118
0.25432
0.0908004
0.0421587
0.0326161
0.0309421
0.0306462
0.0305958
0.221054
0.108888
0.0412743
0.0251102
0.0222415
0.0218325
0.0217512
0.230632
0.100872
0.0400027
0.0268505
0.0245378
0.0241765
0.0240922
0.208286
0.122149
0.0429877
0.0222888
0.0187259
0.018252
0.0181668
0.214701
0.113941
0.0400673
0.0231328
0.0202798
0.0198733
0.0197885
0.198564
0.135036
0.0472499
0.0206441
0.0162039
0.015655
0.0155667
0.203345
0.127668
0.0432927
0.020943
0.0173202
0.0168483
0.0167606
0.190746
0.147528
0.0535241
0.0200165
0.0143455
0.0136878
0.0135968
0.194321
0.141053
0.0493447
0.0199666
0.015186
0.0146067
0.0145167
0.184864
0.158786
0.0609559
0.0202208
0.012951
0.012147
0.0120495
0.187319
0.153231
0.0567256
0.0199016
0.0135965
0.012875
0.0127793
0.181132
0.168116
0.0691703
0.0211493
0.0119031
0.0109117
0.0108041
0.182577
0.163558
0.0647426
0.0205157
0.0123911
0.0114988
0.0113945
0.178966
0.175402
0.0779122
0.0227399
0.01112
0.00990232
0.00978322
0.179737
0.171844
0.0732686
0.0217689
0.0114774
0.0103839
0.0102693
0.177778
0.180788
0.0871871
0.025117
0.0105675
0.00906502
0.00893283
0.178144
0.178134
0.0823186
0.0237464
0.0108091
0.00946577
0.00933953
0.17728
0.184553
0.0966214
0.0284659
0.0102412
0.00836314
0.00821356
0.177324
0.182656
0.0918291
0.0266244
0.0103686
0.00870018
0.00855867
0.17712
0.187098
0.105626
0.0328793
0.0101388
0.00777028
0.00759757
0.177061
0.185765
0.101071
0.0304952
0.0101436
0.0080547
0.00789369
0.17698
0.188694
0.113996
0.0380142
0.0102953
0.00726956
0.00706537
0.176932
0.187797
0.109835
0.0352964
0.0101711
0.00751028
0.00732202
0.177015
0.189527
0.121409
0.043797
0.0107208
0.00684794
0.00660049
0.176872
0.188984
0.117766
0.0407752
0.0104526
0.00704981
0.00682507
0.177097
0.189921
0.127677
0.0500043
0.0114066
0.00649428
0.0061916
0.176958
0.189566
0.124598
0.046766
0.0109904
0.00666071
0.00638915
0.177041
0.19009
0.1329
0.056533
0.0124127
0.00620567
0.00583008
0.17697
0.189846
0.130352
0.0532182
0.0118573
0.00634202
0.00600541
0.177001
0.190015
0.137226
0.0630867
0.0137267
0.00597939
0.00550856
0.176877
0.18989
0.135139
0.0598168
0.0130352
0.00608622
0.00566472
0.177014
0.189743
0.140725
0.0695075
0.01534
0.00581103
0.00522101
0.176863
0.189726
0.139051
0.0663531
0.0145234
0.0058927
0.00536115
0.176945
0.189385
0.143597
0.0757114
0.0172732
0.0057031
0.00496298
0.176845
0.18942
0.14222
0.0727107
0.0163308
0.00575901
0.0050895
0.176595
0.189
0.146021
0.0817648
0.0196302
0.0056685
0.0047309
0.176643
0.189023
0.144864
0.0788829
0.0185259
0.00569578
0.0048454
0.176191
0.188629
0.148102
0.0876188
0.0225217
0.00571892
0.00452244
0.17629
0.18861
0.14706
0.0847844
0.021113
0.0056954
0.00462473
0.176083
0.188113
0.14981
0.0931151
0.0260024
0.00585666
0.00433447
0.176107
0.188172
0.148897
0.0903385
0.0241681
0.00576251
0.00442499
0.176153
0.187483
0.151036
0.0979972
0.0299098
0.00607559
0.00416515
0.176106
0.187561
0.150225
0.0953994
0.0277666
0.00590102
0.00424421
0.176142
0.187025
0.152013
0.102315
0.0340114
0.0063931
0.00401287
0.176095
0.187038
0.151315
0.0999941
0.0317946
0.00616853
0.00408364
0.175955
0.186795
0.153008
0.106347
0.0382608
0.00683081
0.00387791
0.175943
0.186766
0.152411
0.104325
0.0360539
0.00656735
0.00394149
0.175641
0.186637
0.153999
0.109965
0.0426381
0.0074068
0.00376171
0.175637
0.186595
0.153457
0.108218
0.0404945
0.00711928
0.00381893
0.175505
0.18636
0.154797
0.113129
0.0470271
0.00804765
0.00365683
0.175363
0.186354
0.15438
0.111646
0.0449188
0.00776017
0.00371028
0.17623
0.185875
0.155252
0.115599
0.0511263
0.00872535
0.00356184
0.175438
0.186038
0.155148
0.114582
0.0492094
0.00840755
0.0036083
0.178921
0.18473
0.154627
0.116802
0.0546332
0.00949432
0.00348411
0.176392
0.185514
0.155569
0.116943
0.053408
0.00920521
0.00352555
0.17944
0.183548
0.153349
0.117039
0.057709
0.0107615
0.00349704
0.177971
0.184522
0.155018
0.118468
0.0576212
0.010629
0.00354036
0.178738
0.181879
0.152085
0.117183
0.0608187
0.0125013
0.0036102
0.177706
0.183234
0.153815
0.119073
0.0613934
0.0125675
0.00366242
0.260197
0.0783049
0.0531757
0.0498561
0.049448
0.0494367
0.0495108
0.259855
0.0686748
0.0454337
0.0427524
0.0425006
0.0425504
0.0426772
0.262483
0.0783591
0.0523117
0.0487279
0.048275
0.0482579
0.0483118
0.261836
0.0686987
0.044869
0.0420608
0.0417797
0.0418252
0.041972
0.259217
0.0777639
0.0526697
0.0493755
0.0489891
0.0489882
0.0490714
0.258506
0.0777521
0.0527803
0.0494948
0.0491122
0.0491115
0.0491553
0.258089
0.0686384
0.0450265
0.0423151
0.0420777
0.0421307
0.0421732
0.25843
0.0684991
0.0448232
0.0420979
0.0418585
0.0419104
0.0419578
0.260997
0.0782178
0.0527302
0.0493571
0.0489439
0.0489315
0.0489772
0.262382
0.0686785
0.0446762
0.0418416
0.0415555
0.0415927
0.041583
0.298631
0.0943112
0.058298
0.0513744
0.0498937
0.0494946
0.049406
0.185875
0.168449
0.138469
0.107122
0.062764
0.0203135
0.00553617
0.167026
0.173901
0.144785
0.114799
0.0696588
0.0241338
0.00645913
0.18444
0.174629
0.147011
0.116057
0.0677705
0.0198498
0.0048847
0.222113
0.108163
0.0414704
0.0254078
0.0225516
0.0221399
0.0220635
0.231242
0.100744
0.0404808
0.0272168
0.024895
0.0245212
0.0244343
0.215936
0.112796
0.0400197
0.0233532
0.0205725
0.0201721
0.02009
0.19922
0.133663
0.0467084
0.0206363
0.016397
0.0158808
0.0158033
0.195255
0.139388
0.048473
0.0198171
0.0153407
0.0148102
0.0147269
0.260433
0.0778164
0.0461384
0.0417675
0.0411394
0.0409795
0.0409794
0.260402
0.0779312
0.0464062
0.0420347
0.0413933
0.0412314
0.0412392
0.178102
0.18804
0.114764
0.0376524
0.00983073
0.00705452
0.00688328
0.178124
0.188819
0.118557
0.0405192
0.0100193
0.00684338
0.00665522
0.204141
0.126369
0.043091
0.0210655
0.0175621
0.0171032
0.0170214
0.177894
0.188808
0.121891
0.0434341
0.010237
0.00664947
0.00644036
0.179803
0.179331
0.0841443
0.0232805
0.0103144
0.00913128
0.0090311
0.17859
0.186031
0.102389
0.0300692
0.00967768
0.00779883
0.00766977
0.180141
0.176565
0.079485
0.0221565
0.0106106
0.00954329
0.00944592
0.178046
0.189496
0.130643
0.05296
0.0114175
0.00616597
0.00587166
0.177656
0.189594
0.138877
0.0658587
0.0140041
0.00572542
0.00525309
0.177197
0.189075
0.144631
0.078504
0.0180821
0.00554412
0.00475472
0.177246
0.188236
0.148448
0.0897473
0.0235406
0.00558882
0.0043469
0.176206
0.187502
0.151234
0.0996803
0.0313622
0.00605719
0.00402114
0.175744
0.186832
0.153368
0.107905
0.0400513
0.00700925
0.00376441
0.176695
0.185873
0.154325
0.113604
0.0485647
0.00827705
0.00356285
0.177313
0.185831
0.155254
0.117926
0.0568158
0.0100564
0.00343173
0.184781
0.161656
0.0624409
0.0195717
0.0123544
0.0116287
0.0115431
0.195691
0.178509
0.150412
0.115236
0.0600442
0.0119807
0.0034164
0.261186
0.0771338
0.0507747
0.0473209
0.0469147
0.0469066
0.0469659
0.255076
0.0918385
0.0428451
0.0330735
0.0313411
0.0310339
0.0309832
0.173936
0.174912
0.146658
0.115772
0.0691509
0.0227944
0.00614957
0.186272
0.171983
0.141465
0.108482
0.0619411
0.0185761
0.00521266
0.263821
0.0897176
0.0464095
0.037671
0.0361347
0.0358696
0.0358587
0.259374
0.0685944
0.0448198
0.0420696
0.0418176
0.0418639
0.0419021
0.194724
0.180238
0.151704
0.118083
0.0646313
0.0147528
0.00372166
0.169595
0.185393
0.154698
0.12111
0.0669397
0.015342
0.00383517
0.178494
0.17593
0.146054
0.112218
0.0619239
0.0157852
0.00414293
0.178752
0.181355
0.151566
0.118654
0.0641112
0.0142391
0.00377697
0.177821
0.189114
0.127941
0.0496662
0.0109257
0.00631002
0.00604952
0.259275
0.0680447
0.0435446
0.0406103
0.0403346
0.0403781
0.0404526
0.17944
0.182782
0.155261
0.118377
0.0611591
0.0120842
0.00343869
0.177414
0.185214
0.155369
0.1187
0.0587291
0.0105163
0.00340599
0.176834
0.185543
0.154453
0.11472
0.05063
0.0086186
0.00351955
0.175792
0.186251
0.153379
0.109277
0.0421094
0.00723995
0.00370572
0.175835
0.18704
0.15172
0.101965
0.0336387
0.00629453
0.00395361
0.176827
0.187824
0.149242
0.0925101
0.02555
0.00570396
0.0042609
0.177769
0.18525
0.154743
0.116938
0.0549002
0.00962672
0.00346527
0.176151
0.185792
0.1539
0.112127
0.0464046
0.00789963
0.00360747
0.175715
0.186717
0.152712
0.105953
0.0378084
0.00670641
0.00382047
0.176324
0.187412
0.150599
0.0975092
0.029492
0.00596054
0.00409964
0.177089
0.188156
0.147532
0.0870984
0.022101
0.00555621
0.00444161
0.177045
0.188951
0.143306
0.0754469
0.0169677
0.00556692
0.00486961
0.177678
0.189314
0.137055
0.0627629
0.0133112
0.00582249
0.00539571
0.177243
0.189201
0.140497
0.0692219
0.0149975
0.00566988
0.00511939
0.177104
0.188512
0.145579
0.0814119
0.0192925
0.00552367
0.00464436
0.178298
0.186696
0.106693
0.0324531
0.00967589
0.00753157
0.00738901
0.179182
0.181215
0.088727
0.0246102
0.0100786
0.00875669
0.00864904
0.178568
0.184517
0.0979155
0.0280485
0.0097643
0.00809384
0.00797131
0.177859
0.189257
0.132927
0.0561845
0.0119404
0.00603325
0.00570363
0.175527
0.18331
0.12094
0.0473114
0.0111815
0.00603399
0.00567174
0.175445
0.182731
0.114556
0.0412587
0.0103621
0.00630746
0.00601539
0.175259
0.182754
0.117771
0.0441252
0.0106697
0.00615025
0.00583687
0.178963
0.174114
0.0796206
0.0220967
0.00925917
0.00801901
0.00791617
0.180889
0.169352
0.0703292
0.01927
0.00956107
0.00866714
0.00858595
0.179631
0.171683
0.0749626
0.020668
0.00940053
0.00832993
0.00823832
0.183014
0.163008
0.0615604
0.0173652
0.0100863
0.00944134
0.00937436
0.181638
0.166188
0.0659264
0.0182859
0.00980543
0.00903696
0.0089633
0.208393
0.103464
0.031012
0.0184195
0.0170178
0.0168685
0.016831
0.174103
0.184868
0.131363
0.0603799
0.013964
0.0056918
0.00509575
0.174048
0.184927
0.138467
0.0733456
0.0183126
0.00560106
0.00463091
0.17517
0.184262
0.126395
0.0536009
0.0122892
0.00581609
0.00536701
0.175116
0.18363
0.123699
0.0504575
0.01173
0.00591757
0.0055154
0.174357
0.184311
0.12904
0.0572417
0.0132623
0.00576604
0.00522926
0.173782
0.185069
0.13537
0.067065
0.0160411
0.00563605
0.0048521
0.173829
0.184672
0.13679
0.0701162
0.0170448
0.00557778
0.00473634
0.177082
0.182233
0.15084
0.111901
0.0524926
0.00986572
0.00353097
0.174317
0.184828
0.14334
0.0849644
0.0240737
0.00571515
0.00425045
0.172588
0.184606
0.14725
0.095755
0.0320202
0.00639026
0.00396039
0.172619
0.18412
0.149977
0.104442
0.0406841
0.00758658
0.00374881
0.173862
0.183383
0.151193
0.110486
0.0491615
0.00918281
0.00360538
0.173798
0.183305
0.151723
0.111804
0.0511535
0.009554
0.00356951
0.190506
0.144063
0.045254
0.0155104
0.0118093
0.0114933
0.0114443
0.167987
0.183755
0.15534
0.11938
0.0640231
0.0148031
0.00392947
0.17538
0.17511
0.145094
0.111128
0.0622236
0.0175971
0.00487051
0.241049
0.0739991
0.0367096
0.0306214
0.0297954
0.0297395
0.0297441
0.262671
0.0794982
0.0424507
0.035938
0.0349677
0.034887
0.0349227
0.152751
0.172549
0.141227
0.11033
0.0676625
0.0258801
0.00756027
0.257431
0.0789545
0.0439676
0.0379084
0.0370173
0.0369572
0.0370464
0.185995
0.154685
0.0530638
0.0160809
0.010818
0.0103692
0.0103129
0.183931
0.158963
0.0574188
0.0167338
0.0104319
0.00988395
0.00982219
0.137306
0.170194
0.139193
0.111912
0.0739979
0.0336651
0.0107255
0.142404
0.17327
0.144654
0.114567
0.0723146
0.0293335
0.00870109
0.129685
0.170118
0.139145
0.113698
0.0782767
0.038436
0.0128395
0.130556
0.168169
0.141755
0.116129
0.0790154
0.0374446
0.0122411
0.129238
0.170514
0.139465
0.113404
0.0784114
0.0395129
0.0133875
0.128689
0.169149
0.142644
0.116385
0.0801442
0.0396909
0.0134294
0.129375
0.171984
0.142881
0.115525
0.0792451
0.0388204
0.0128884
0.129209
0.169712
0.143022
0.116661
0.0804091
0.039965
0.0135564
0.138555
0.173279
0.141984
0.113115
0.075306
0.0347279
0.0109829
0.129419
0.173351
0.147202
0.118715
0.0801313
0.037823
0.0122522
0.152879
0.174479
0.142516
0.112278
0.0706556
0.027957
0.00817687
0.1548
0.177092
0.147807
0.117135
0.0719101
0.0256053
0.00696705
0.140385
0.175836
0.146276
0.11682
0.0766764
0.0331311
0.010004
0.264549
0.0807977
0.0433889
0.0366059
0.0355188
0.0354066
0.0354305
0.239693
0.0749844
0.03749
0.0311713
0.0302437
0.0301524
0.030144
0.257762
0.0792524
0.0436225
0.0373593
0.0364108
0.0363319
0.0363447
0.223135
0.0797065
0.0321773
0.0245612
0.0236095
0.0235312
0.0235137
0.232187
0.0780615
0.0348624
0.0274087
0.0264232
0.0263601
0.0263644
0.216138
0.090576
0.0298416
0.0205076
0.0194947
0.0194032
0.0193777
0.219613
0.0837911
0.0305364
0.022288
0.0213261
0.0212482
0.021228
0.208726
0.104039
0.030575
0.0179234
0.0165934
0.0164732
0.0164415
0.211786
0.0961775
0.029594
0.0190151
0.0178963
0.0177972
0.0177676
0.20142
0.11843
0.0332724
0.0162107
0.0144403
0.0142899
0.0142552
0.204781
0.110808
0.0313749
0.0169258
0.0154293
0.0153001
0.0152669
0.19433
0.1329
0.038322
0.0152406
0.0127938
0.0126012
0.0125619
0.197611
0.125901
0.035664
0.0156616
0.0135619
0.0133958
0.013359
0.189105
0.145679
0.0450439
0.0150033
0.0115209
0.0112561
0.0112118
0.19135
0.139594
0.0417871
0.0151056
0.0121191
0.0118928
0.0118506
0.185781
0.156161
0.0524355
0.0152938
0.0105199
0.0101632
0.0101132
0.187344
0.151179
0.0486539
0.0150738
0.0109849
0.0106823
0.0106354
0.183297
0.164518
0.060534
0.0161968
0.00974948
0.00926123
0.00920495
0.184513
0.16059
0.0563277
0.015633
0.0101014
0.00969115
0.00963876
0.181581
0.170714
0.0693204
0.0178432
0.00918386
0.00850642
0.00844102
0.182272
0.167878
0.0648512
0.0169196
0.00944084
0.0088671
0.00880692
0.180414
0.175159
0.0783156
0.0201501
0.00878242
0.00786615
0.00778945
0.180982
0.173135
0.0736659
0.018843
0.00895596
0.00817211
0.00810231
0.179227
0.178433
0.0876592
0.0234097
0.0085684
0.00732184
0.00722907
0.179819
0.176934
0.0828783
0.0215991
0.00864564
0.00758223
0.00749886
0.178385
0.180653
0.0969004
0.0276529
0.00857731
0.00685808
0.0067412
0.178669
0.179658
0.092296
0.0254126
0.00854153
0.00707906
0.0069764
0.1779
0.182172
0.105427
0.0324341
0.00875661
0.00645801
0.00631225
0.178133
0.18146
0.101129
0.0298299
0.00860631
0.00664548
0.00651877
0.177338
0.183362
0.113185
0.0378848
0.00917861
0.00611987
0.00593353
0.17757
0.182813
0.109315
0.0349518
0.00890102
0.0062767
0.00611648
0.176649
0.18431
0.120069
0.0440428
0.00991132
0.005841
0.0055971
0.176847
0.183867
0.116738
0.0408707
0.00950716
0.00597068
0.00575999
0.176433
0.184886
0.125895
0.0505677
0.0109495
0.0056182
0.00529685