/*--------------------------------*- C++ -*----------------------------------*\
  =========                 |
  \\      /  F ield         | OpenFOAM: The Open Source CFD Toolbox
   \\    /   O peration     | Website:  https://openfoam.org
    \\  /    A nd           | Version:  12
     \\/     M anipulation  |
\*---------------------------------------------------------------------------*/
FoamFile
{
    format      ascii;
    class       volScalarField;
    location    "11500";
    object      nut;
}
// * * * * * * * * * * * * * * * * * * * * * * * * * * * * * * * * * * * * * //

dimensions      [0 2 -1 0 0 0 0];

internalField   nonuniform List<scalar> 
24749
(
1.38487e-05
1.01696e-05
9.81681e-06
9.80358e-06
9.80352e-06
9.80304e-06
9.8026e-06
1.60259e-05
1.30347e-05
1.02594e-05
9.61841e-06
9.47998e-06
9.43867e-06
9.42604e-06
1.28304e-05
1.37562e-05
1.06077e-05
9.37407e-06
9.13319e-06
9.08285e-06
9.06762e-06
9.98682e-06
1.67284e-05
1.13847e-05
9.31644e-06
8.90225e-06
8.83457e-06
8.8165e-06
8.7978e-06
1.9293e-05
1.29741e-05
9.44899e-06
8.74552e-06
8.64935e-06
8.63023e-06
8.43948e-06
2.20973e-05
1.59556e-05
9.84628e-06
8.65502e-06
8.50388e-06
8.48209e-06
8.52439e-06
2.45998e-05
1.98118e-05
1.07093e-05
8.64489e-06
8.38674e-06
8.36001e-06
8.77542e-06
2.66075e-05
2.47074e-05
1.24456e-05
8.74228e-06
8.29236e-06
8.25672e-06
9.04495e-06
2.82246e-05
2.98504e-05
1.56437e-05
9.03565e-06
8.21999e-06
8.16783e-06
9.31942e-06
2.95801e-05
3.44095e-05
2.01624e-05
9.70247e-06
8.17495e-06
8.08968e-06
9.52702e-06
3.06704e-05
3.8413e-05
2.5582e-05
1.09794e-05
8.17469e-06
8.02107e-06
9.74291e-06
3.16155e-05
4.19296e-05
3.06631e-05
1.29775e-05
8.24724e-06
7.96067e-06
9.91673e-06
3.23473e-05
4.50204e-05
3.57114e-05
1.58076e-05
8.44228e-06
7.90908e-06
1.00174e-05
3.2882e-05
4.76854e-05
4.06125e-05
1.97719e-05
8.86113e-06
7.86875e-06
1.01693e-05
3.34213e-05
5.01038e-05
4.53778e-05
2.46667e-05
9.54299e-06
7.84113e-06
1.03954e-05
3.3878e-05
5.18331e-05
4.9762e-05
2.92898e-05
1.04959e-05
7.83023e-06
1.05978e-05
3.41628e-05
5.31544e-05
5.32577e-05
3.37831e-05
1.18324e-05
7.84367e-06
1.35649e-05
3.4909e-05
5.35259e-05
5.80704e-05
3.98682e-05
1.36763e-05
7.98348e-06
1.11881e-05
3.12057e-05
4.76055e-05
4.91029e-05
3.48478e-05
1.40412e-05
8.2767e-06
1.33107e-05
3.32436e-05
5.21566e-05
5.96771e-05
4.08765e-05
1.40218e-05
8.11008e-06
1.56717e-05
3.50412e-05
5.26957e-05
5.41938e-05
4.00124e-05
1.31257e-05
7.69307e-06
1.58702e-05
3.08207e-05
4.74261e-05
5.36654e-05
4.16263e-05
2.02063e-05
7.12215e-06
1.32446e-05
3.04956e-05
4.62098e-05
4.93283e-05
4.19602e-05
2.4888e-05
9.64367e-06
8.80068e-06
2.80125e-05
4.34568e-05
4.80603e-05
4.33447e-05
3.17106e-05
1.64889e-05
1.0747e-05
2.86901e-05
4.3696e-05
5.16513e-05
4.41602e-05
2.83095e-05
1.30657e-05
5.27816e-06
2.39686e-05
4.15789e-05
4.69844e-05
4.3793e-05
3.42574e-05
2.24613e-05
6.97448e-06
2.53651e-05
4.13113e-05
5.04465e-05
4.4572e-05
3.30894e-05
1.85273e-05
3.47307e-06
2.1906e-05
3.83236e-05
4.59435e-05
4.34801e-05
3.4567e-05
2.50491e-05
4.41434e-06
2.17581e-05
3.90595e-05
4.82661e-05
4.39029e-05
3.39248e-05
2.46948e-05
3.38521e-06
2.11871e-05
3.76309e-05
4.57979e-05
4.42311e-05
3.70231e-05
2.52046e-05
3.52367e-06
2.023e-05
3.70999e-05
4.79134e-05
4.61201e-05
3.65088e-05
2.98042e-05
3.40844e-06
2.1208e-05
3.67836e-05
4.6911e-05
4.49639e-05
3.75183e-05
2.86506e-05
3.50249e-06
1.98843e-05
3.69067e-05
4.78734e-05
4.71281e-05
3.86897e-05
2.52525e-05
3.41412e-06
2.18494e-05
3.81494e-05
4.80961e-05
4.45998e-05
3.62986e-05
2.62086e-05
3.53363e-06
2.00717e-05
3.74178e-05
4.83644e-05
4.72298e-05
3.87252e-05
2.82185e-05
3.7823e-06
2.25918e-05
3.99403e-05
4.72448e-05
4.45545e-05
3.5864e-05
2.70864e-05
3.58387e-06
2.08824e-05
3.87578e-05
4.92359e-05
4.66692e-05
3.72773e-05
2.62547e-05
5.59651e-06
2.45965e-05
4.19766e-05
4.88051e-05
4.53793e-05
3.49555e-05
2.29108e-05
4.42805e-06
2.20547e-05
3.92756e-05
5.00861e-05
4.64115e-05
3.64946e-05
2.4735e-05
9.24596e-06
2.97818e-05
4.51119e-05
5.3764e-05
4.69059e-05
3.12682e-05
1.63772e-05
6.71794e-06
2.51071e-05
4.11906e-05
5.06223e-05
4.46561e-05
3.25192e-05
1.90576e-05
1.50285e-05
3.31931e-05
5.00976e-05
5.66326e-05
4.53637e-05
2.22415e-05
8.71508e-06
1.07222e-05
3.27811e-05
5.10452e-05
5.67648e-05
4.40517e-05
1.89826e-05
9.18725e-06
7.55403e-06
2.87929e-05
4.75542e-05
5.13323e-05
4.15344e-05
2.61419e-05
1.1994e-05
1.46605e-05
2.92351e-05
4.66527e-05
5.23974e-05
4.40522e-05
2.11597e-05
8.28699e-06
1.38459e-05
1.01712e-05
9.81706e-06
9.80365e-06
9.80356e-06
9.80307e-06
9.80255e-06
1.60033e-05
1.30477e-05
1.02627e-05
9.61734e-06
9.47962e-06
9.43731e-06
9.42327e-06
1.55782e-05
1.3166e-05
1.03559e-05
9.45217e-06
9.28362e-06
9.23944e-06
9.23067e-06
1.58308e-05
1.35648e-05
1.04388e-05
9.5446e-06
9.37844e-06
9.33484e-06
9.32024e-06
1.28058e-05
1.37357e-05
1.05858e-05
9.36546e-06
9.1312e-06
9.07933e-06
9.06842e-06
1.42098e-05
1.3766e-05
1.06318e-05
9.4326e-06
9.20684e-06
9.15557e-06
9.14555e-06
1.10536e-05
1.55503e-05
1.09371e-05
9.32279e-06
9.00561e-06
8.94491e-06
8.93192e-06
1.19699e-05
1.47198e-05
1.09102e-05
9.36844e-06
9.06707e-06
9.00889e-06
8.99652e-06
9.96385e-06
1.68437e-05
1.14294e-05
9.32775e-06
8.9027e-06
8.83093e-06
8.81644e-06
1.05807e-05
1.63533e-05
1.13448e-05
9.34838e-06
8.95353e-06
8.88565e-06
8.8714e-06
9.23964e-06
1.80546e-05
1.21304e-05
9.38443e-06
8.8193e-06
8.73277e-06
8.71744e-06
9.67058e-06
1.74785e-05
1.19461e-05
9.3826e-06
8.86131e-06
8.78018e-06
8.76492e-06
8.76009e-06
1.93825e-05
1.31403e-05
9.50359e-06
8.75452e-06
8.647e-06
8.63032e-06
9.07305e-06
1.88058e-05
1.28098e-05
9.47948e-06
8.78752e-06
8.68863e-06
8.67249e-06
8.48889e-06
2.0768e-05
1.45943e-05
9.70767e-06
8.70921e-06
8.57127e-06
8.5525e-06
8.7069e-06
2.02229e-05
1.40393e-05
9.65764e-06
8.73298e-06
8.60812e-06
8.59021e-06
8.37656e-06
2.21411e-05
1.62625e-05
1.00082e-05
8.68462e-06
8.50388e-06
8.48248e-06
8.52933e-06
2.16504e-05
1.55534e-05
9.91638e-06
8.69819e-06
8.53667e-06
8.51656e-06
8.38101e-06
2.34432e-05
1.81188e-05
1.04348e-05
8.68371e-06
8.44383e-06
8.41885e-06
8.48895e-06
2.30339e-05
1.7284e-05
1.02757e-05
8.68482e-06
8.47302e-06
8.44989e-06
8.46176e-06
2.46267e-05
2.02097e-05
1.10344e-05
8.71046e-06
8.39042e-06
8.3608e-06
8.54312e-06
2.4325e-05
1.92294e-05
1.07848e-05
8.69702e-06
8.41637e-06
8.38917e-06
8.58243e-06
2.56791e-05
2.25704e-05
1.18598e-05
8.76837e-06
8.34313e-06
8.30707e-06
8.6516e-06
2.54768e-05
2.14284e-05
1.14908e-05
8.73862e-06
8.36607e-06
8.33336e-06
8.71511e-06
2.66086e-05
2.52685e-05
1.30019e-05
8.87385e-06
8.30211e-06
8.25764e-06
8.78429e-06
2.64921e-05
2.39315e-05
1.2468e-05
8.81825e-06
8.3219e-06
8.28187e-06
8.8502e-06
2.74505e-05
2.80482e-05
1.45466e-05
9.04178e-06
8.26765e-06
8.21173e-06
8.91939e-06
2.73921e-05
2.68012e-05
1.38141e-05
8.95487e-06
8.28417e-06
8.23425e-06
8.99079e-06
2.82263e-05
3.03861e-05
1.65055e-05
9.29223e-06
8.24019e-06
8.16902e-06
9.05828e-06
2.82107e-05
2.92701e-05
1.55508e-05
9.15986e-06
8.25308e-06
8.18997e-06
9.12819e-06
2.89321e-05
3.26919e-05
1.87324e-05
9.64684e-06
8.22102e-06
8.12901e-06
9.19501e-06
2.89505e-05
3.16765e-05
1.76431e-05
9.46172e-06
8.22973e-06
8.14877e-06
9.26048e-06
2.95741e-05
3.4882e-05
2.12013e-05
1.01312e-05
8.21174e-06
8.0915e-06
9.32828e-06
2.96244e-05
3.40022e-05
1.99922e-05
9.87915e-06
8.21515e-06
8.10997e-06
9.38277e-06
3.01589e-05
3.69392e-05
2.38834e-05
1.07785e-05
8.21674e-06
8.05649e-06
9.45056e-06
3.02295e-05
3.61978e-05
2.25732e-05
1.04476e-05
8.213e-06
8.07371e-06
9.49914e-06
3.06916e-05
3.8847e-05
2.67292e-05
1.15966e-05
8.23806e-06
8.02363e-06
9.56064e-06
3.07727e-05
3.82353e-05
2.52539e-05
1.11837e-05
8.2264e-06
8.03981e-06
9.5988e-06
3.11591e-05
4.06121e-05
2.92036e-05
1.25961e-05
8.28099e-06
7.99309e-06
9.66278e-06
3.12603e-05
4.01233e-05
2.77758e-05
1.21005e-05
8.25915e-06
8.00815e-06
9.68809e-06
3.15747e-05
4.22562e-05
3.16861e-05
1.37964e-05
8.35275e-06
7.96479e-06
9.75452e-06
3.16991e-05
4.18743e-05
3.03252e-05
1.32061e-05
8.31622e-06
7.9787e-06
9.78147e-06
3.19636e-05
4.38174e-05
3.41742e-05
1.52082e-05
8.46133e-06
7.93917e-06
9.84727e-06
3.21087e-05
4.35126e-05
3.2874e-05
1.45059e-05
8.40402e-06
7.95168e-06
9.87158e-06
3.23156e-05
4.53066e-05
3.66403e-05
1.68432e-05
8.60769e-06
7.91591e-06
9.93395e-06
3.24661e-05
4.50618e-05
3.54247e-05
1.6013e-05
8.52431e-06
7.92702e-06
9.94875e-06
3.26162e-05
4.67156e-05
3.91249e-05
1.87715e-05
8.8114e-06
7.89563e-06
1.00072e-05
3.2761e-05
4.64996e-05
3.79887e-05
1.77929e-05
8.69308e-06
7.90511e-06
1.00165e-05
3.28887e-05
4.80207e-05
4.15523e-05
2.10448e-05
9.09641e-06
7.87921e-06
1.00661e-05
3.30134e-05
4.78362e-05
4.05242e-05
1.98987e-05
8.93598e-06
7.88667e-06
1.00728e-05
3.31298e-05
4.92157e-05
4.39121e-05
2.35159e-05
9.49179e-06
7.86841e-06
1.01229e-05
3.32536e-05
4.90648e-05
4.29844e-05
2.22884e-05
9.2836e-06
7.87325e-06
1.01331e-05
3.33524e-05
5.03273e-05
4.62217e-05
2.61127e-05
9.96807e-06
7.86149e-06
1.01787e-05
3.34779e-05
4.99785e-05
4.53926e-05
2.47321e-05
9.74519e-06
7.86597e-06
1.02489e-05
3.36176e-05
5.12428e-05
4.84411e-05
2.83191e-05
1.04492e-05
7.85636e-06
1.02662e-05
3.37264e-05
5.08291e-05
4.76232e-05
2.68937e-05
1.02126e-05
7.85843e-06
1.04386e-05
3.39327e-05
5.19387e-05
5.06033e-05
3.07012e-05
1.10224e-05
7.85673e-06
1.03937e-05
3.39635e-05
5.15837e-05
4.98102e-05
2.92268e-05
1.07416e-05
7.8557e-06
1.05331e-05
3.40019e-05
5.24306e-05
5.24967e-05
3.32214e-05
1.18171e-05
7.87403e-06
1.04736e-05
3.39955e-05
5.20906e-05
5.18903e-05
3.17355e-05
1.14897e-05
7.86949e-06
1.05577e-05
3.39353e-05
5.26782e-05
5.39721e-05
3.56889e-05
1.291e-05
7.92701e-06
1.04752e-05
3.38832e-05
5.22895e-05
5.38401e-05
3.45367e-05
1.25656e-05
7.91751e-06
1.02817e-05
3.3038e-05
5.1774e-05
5.30706e-05
3.58949e-05
1.38085e-05
7.95587e-06
1.0525e-05
3.38855e-05
5.25525e-05
5.5408e-05
3.69366e-05
1.34815e-05
7.9402e-06
1.0698e-05
3.27018e-05
4.95477e-05
5.02551e-05
3.5362e-05
1.54595e-05
8.21102e-06
1.3811e-05
3.47744e-05
5.19344e-05
5.10271e-05
3.89889e-05
1.86389e-05
9.31393e-06
1.11155e-05
3.47326e-05
5.33008e-05
5.50045e-05
3.81266e-05
1.50733e-05
8.14686e-06
1.34646e-05
1.03027e-05
9.86437e-06
9.82379e-06
9.81831e-06
9.81572e-06
9.8146e-06
1.33539e-05
1.03139e-05
9.87505e-06
9.82712e-06
9.81992e-06
9.81793e-06
9.81728e-06
1.32426e-05
1.02955e-05
9.87773e-06
9.83204e-06
9.8248e-06
9.82274e-06
9.8221e-06
1.3311e-05
1.03074e-05
9.87558e-06
9.82885e-06
9.82164e-06
9.81962e-06
9.81899e-06
1.33815e-05
1.03186e-05
9.87376e-06
9.82567e-06
9.81857e-06
9.81666e-06
9.816e-06
1.34466e-05
1.02978e-05
9.86433e-06
9.82449e-06
9.81926e-06
9.81675e-06
9.81574e-06
1.58615e-05
1.35745e-05
1.04487e-05
9.54932e-06
9.38005e-06
9.33746e-06
9.32447e-06
1.55969e-05
1.31822e-05
1.03668e-05
9.45653e-06
9.28505e-06
9.2417e-06
9.23132e-06
1.41975e-05
1.37844e-05
1.06571e-05
9.442e-06
9.20934e-06
9.15974e-06
9.14593e-06
1.10696e-05
1.55043e-05
1.0939e-05
9.3259e-06
9.00658e-06
8.94863e-06
8.93145e-06
9.25629e-06
1.79253e-05
1.20316e-05
9.35541e-06
8.81578e-06
8.73588e-06
8.71747e-06
8.54357e-06
2.07074e-05
1.43338e-05
9.6103e-06
8.69139e-06
8.57262e-06
8.55237e-06
8.44976e-06
2.34124e-05
1.77745e-05
1.01987e-05
8.63862e-06
8.44223e-06
8.41826e-06
8.63838e-06
2.56607e-05
2.2103e-05
1.14362e-05
8.67626e-06
8.33691e-06
8.30633e-06
8.9068e-06
2.7447e-05
2.75231e-05
1.38208e-05
8.85509e-06
8.25332e-06
8.21077e-06
9.18747e-06
2.89399e-05
3.21823e-05
1.77807e-05
9.31161e-06
8.19363e-06
8.12752e-06
9.42744e-06
3.01474e-05
3.64919e-05
2.27734e-05
1.0249e-05
8.16749e-06
8.05433e-06
9.63785e-06
3.11686e-05
4.02333e-05
2.81433e-05
1.18886e-05
8.19993e-06
7.98989e-06
9.8404e-06
3.20154e-05
4.35319e-05
3.32015e-05
1.42679e-05
8.32295e-06
7.93357e-06
9.96775e-06
3.26222e-05
4.63972e-05
3.81754e-05
1.76315e-05
8.61999e-06
7.88744e-06
1.00872e-05
3.31593e-05
4.89239e-05
4.30038e-05
2.21514e-05
9.17554e-06
7.85335e-06
1.02777e-05
3.36647e-05
5.10956e-05
4.7634e-05
2.69524e-05
9.97905e-06
7.83339e-06
1.045e-05
3.39405e-05
5.25167e-05
5.15372e-05
3.15322e-05
1.11113e-05
7.83283e-06
1.18279e-05
3.5304e-05
5.35577e-05
5.62339e-05
3.7511e-05
1.27677e-05
7.88075e-06
1.58884e-05
1.0168e-05
9.70278e-06
9.67115e-06
9.67069e-06
9.65953e-06
9.65558e-06
1.51366e-05
1.04296e-05
9.72421e-06
9.67103e-06
9.66361e-06
9.66067e-06
9.65997e-06
1.34887e-05
1.03298e-05
9.86723e-06
9.81957e-06
9.81276e-06
9.81081e-06
9.81009e-06
1.50409e-05
1.03621e-05
9.73419e-06
9.68299e-06
9.67469e-06
9.67231e-06
9.67205e-06
1.32537e-05
1.02947e-05
9.87707e-06
9.83174e-06
9.82452e-06
9.82244e-06
9.82175e-06
1.51403e-05
1.04009e-05
9.72672e-06
9.67296e-06
9.66486e-06
9.66246e-06
9.66165e-06
1.49718e-05
1.03463e-05
9.73684e-06
9.68703e-06
9.67867e-06
9.67631e-06
9.67555e-06
1.32836e-05
1.03048e-05
9.87776e-06
9.83027e-06
9.82295e-06
9.82093e-06
9.82027e-06
1.3331e-05
1.0308e-05
9.87466e-06
9.82815e-06
9.82097e-06
9.81892e-06
9.81824e-06
1.3474e-05
1.03244e-05
9.86725e-06
9.82034e-06
9.81363e-06
9.81168e-06
9.81095e-06
1.58933e-05
1.01694e-05
9.70269e-06
9.6715e-06
9.67111e-06
9.66031e-06
9.65699e-06
1.19972e-05
1.47117e-05
1.09146e-05
9.37278e-06
9.06877e-06
9.01302e-06
8.99615e-06
9.70116e-06
1.74164e-05
1.18511e-05
9.35618e-06
8.8581e-06
8.78367e-06
8.76532e-06
8.75821e-06
2.01511e-05
1.37875e-05
9.56168e-06
8.7179e-06
8.60994e-06
8.59021e-06
8.54926e-06
2.29801e-05
1.69366e-05
1.00609e-05
8.646e-06
8.47214e-06
8.44945e-06
8.69518e-06
2.54081e-05
2.09865e-05
1.11003e-05
8.65846e-06
8.36101e-06
8.3327e-06
8.95759e-06
2.73245e-05
2.61819e-05
1.31402e-05
8.79164e-06
8.27202e-06
8.23334e-06
9.22267e-06
2.88746e-05
3.11031e-05
1.6711e-05
9.1562e-06
8.20563e-06
8.14744e-06
9.46536e-06
3.01219e-05
3.5648e-05
2.14731e-05
9.95576e-06
8.16964e-06
8.07178e-06
9.66657e-06
3.11701e-05
3.96098e-05
2.67411e-05
1.14201e-05
8.18565e-06
8.00527e-06
9.85902e-06
3.20223e-05
4.30515e-05
3.18688e-05
1.35991e-05
8.281e-06
7.94691e-06
9.99714e-06
3.26611e-05
4.60321e-05
3.70107e-05
1.6743e-05
8.53787e-06
7.89844e-06
1.01113e-05
3.321e-05
4.86413e-05
4.19848e-05
2.09614e-05
9.01186e-06
7.86083e-06
1.02733e-05
3.36902e-05
5.06767e-05
4.67024e-05
2.56538e-05
9.75046e-06
7.83713e-06
1.0481e-05
3.40641e-05
5.21574e-05
5.09626e-05
3.03043e-05
1.07937e-05
7.83076e-06
1.09835e-05
3.4776e-05
5.34463e-05
5.47756e-05
3.53453e-05
1.2352e-05
7.86146e-06
1.49803e-05
1.03552e-05
9.73708e-06
9.68539e-06
9.67727e-06
9.67497e-06
9.6747e-06
8.58892e-06
2.15925e-05
1.52386e-05
9.76814e-06
8.67264e-06
8.53727e-06
8.51636e-06
8.5975e-06
2.42617e-05
1.88431e-05
1.04881e-05
8.64022e-06
8.4136e-06
8.38853e-06
8.82347e-06
2.64283e-05
2.34106e-05
1.19567e-05
8.70439e-06
8.31383e-06
8.2811e-06
9.08913e-06
2.81361e-05
2.87075e-05
1.47329e-05
8.93204e-06
8.23561e-06
8.18892e-06
9.35196e-06
2.95343e-05
3.34394e-05
1.89673e-05
9.48319e-06
8.18272e-06
8.10832e-06
9.5634e-06
3.06597e-05
3.76965e-05
2.41953e-05
1.06051e-05
8.17033e-06
8.03753e-06
9.76705e-06
3.16242e-05
4.13918e-05
2.92926e-05
1.24072e-05
8.21982e-06
7.97502e-06
9.93908e-06
3.23697e-05
4.45905e-05
3.44478e-05
1.50365e-05
8.38219e-06
7.92127e-06
1.00485e-05
3.29342e-05
4.73731e-05
3.95273e-05
1.87256e-05
8.74883e-06
7.8784e-06
1.01811e-05
3.3456e-05
4.97954e-05
4.44163e-05
2.34009e-05
9.34477e-06
7.84707e-06
1.03813e-05
3.39042e-05
5.14642e-05
4.89229e-05
2.79795e-05
1.02299e-05
7.83143e-06
1.05599e-05
3.42242e-05
5.28205e-05
5.28525e-05
3.26661e-05
1.14723e-05
7.838e-06
1.20155e-05
3.50185e-05
5.34105e-05
5.81204e-05
3.931e-05
1.3275e-05
7.90886e-06
9.10779e-06
1.87243e-05
1.26475e-05
9.42701e-06
8.78017e-06
8.69139e-06
8.67263e-06
1.06184e-05
1.63365e-05
1.12974e-05
9.33961e-06
8.95323e-06
8.88963e-06
8.87157e-06
1.51293e-05
1.04201e-05
9.72423e-06
9.67239e-06
9.66509e-06
9.66227e-06
9.66099e-06
1.50896e-05
1.03807e-05
9.73097e-06
9.67863e-06
9.67049e-06
9.66819e-06
9.6675e-06
1.5013e-05
1.03668e-05
9.73514e-06
9.68259e-06
9.67455e-06
9.67227e-06
9.67157e-06
1.50379e-05
1.03721e-05
9.73278e-06
9.681e-06
9.67288e-06
9.67061e-06
9.6705e-06
1.51545e-05
1.04009e-05
9.72553e-06
9.67251e-06
9.66449e-06
9.66213e-06
9.66166e-06
1.298e-05
1.49892e-05
1.12424e-05
9.62265e-06
9.23854e-06
9.15991e-06
9.14477e-06
1.58561e-05
1.15392e-05
9.87602e-06
9.57523e-06
9.52807e-06
9.51889e-06
9.51605e-06
8.13296e-06
2.17219e-05
1.7968e-05
1.10677e-05
8.94712e-06
8.6367e-06
8.59634e-06
9.55742e-06
1.83829e-05
1.33425e-05
9.93903e-06
9.05046e-06
8.90066e-06
8.8752e-06
8.15838e-06
2.43406e-05
2.20867e-05
1.24006e-05
9.00404e-06
8.51062e-06
8.4567e-06
8.47973e-06
2.66699e-05
2.71591e-05
1.46961e-05
9.22425e-06
8.41656e-06
8.34054e-06
8.87755e-06
2.85934e-05
3.17548e-05
1.84876e-05
9.74811e-06
8.35703e-06
8.24237e-06
9.22484e-06
3.00484e-05
3.618e-05
2.33682e-05
1.07574e-05
8.34625e-06
8.15827e-06
9.54059e-06
3.11792e-05
4.0071e-05
2.85225e-05
1.23309e-05
8.39774e-06
8.08595e-06
9.71854e-06
3.19563e-05
4.33082e-05
3.33006e-05
1.47232e-05
8.57535e-06
8.02571e-06
9.94776e-06
3.26832e-05
4.63644e-05
3.82601e-05
1.78991e-05
8.90569e-06
7.9767e-06
1.00518e-05
3.31058e-05
4.88258e-05
4.28413e-05
2.21432e-05
9.46632e-06
7.94234e-06
1.00885e-05
3.33975e-05
5.07813e-05
4.7156e-05
2.71031e-05
1.05079e-05
7.93718e-06
1.02441e-05
3.3785e-05
5.21778e-05
5.12468e-05
3.18043e-05
1.1889e-05
7.96096e-06
1.05157e-05
3.42051e-05
5.33768e-05
5.48848e-05
3.65732e-05
1.34101e-05
8.00377e-06
1.02512e-05
3.36066e-05
5.39742e-05
5.76018e-05
4.10446e-05
1.58165e-05
8.14931e-06
1.58005e-05
1.15033e-05
9.8869e-06
9.59992e-06
9.55511e-06
9.54685e-06
9.54544e-06
8.33278e-06
2.04279e-05
1.62715e-05
1.05968e-05
8.95999e-06
8.71322e-06
8.67808e-06
8.30064e-06
2.12401e-05
1.69977e-05
1.07501e-05
8.94409e-06
8.67369e-06
8.63583e-06
1.64991e-05
1.22978e-05
1.02947e-05
9.72794e-06
9.59821e-06
9.55947e-06
9.5472e-06
1.35122e-05
3.39257e-05
5.23376e-05
5.65997e-05
4.34448e-05
1.87225e-05
8.94904e-06
1.57937e-05
1.15008e-05
9.89037e-06
9.60499e-06
9.55953e-06
9.55097e-06
9.54903e-06
1.58207e-05
1.11459e-05
9.77596e-06
9.49402e-06
9.44804e-06
9.43965e-06
9.43843e-06
8.088e-06
2.30421e-05
1.98873e-05
1.16502e-05
8.95981e-06
8.56956e-06
8.52305e-06
8.17581e-06
2.38671e-05
2.09309e-05
1.19765e-05
8.97754e-06
8.53977e-06
8.48925e-06
8.1327e-06
2.80906e-05
4.47834e-05
5.10242e-05
4.49403e-05
3.13291e-05
1.58906e-05
6.27367e-06
2.56987e-05
4.29938e-05
4.89342e-05
4.41662e-05
3.45955e-05
2.0777e-05
6.63028e-06
2.56477e-05
4.24674e-05
5.04793e-05
4.40513e-05
3.32234e-05
1.7543e-05
5.02296e-06
2.4305e-05
4.1139e-05
4.85532e-05
4.72528e-05
3.59133e-05
2.46535e-05
5.30108e-06
2.36431e-05
4.00352e-05
4.92697e-05
4.48317e-05
3.48015e-05
2.25454e-05
4.62774e-06
2.39043e-05
4.10501e-05
4.90558e-05
4.81813e-05
3.69174e-05
2.64161e-05
4.51799e-06
2.2311e-05
3.86962e-05
4.94362e-05
4.64166e-05
3.80349e-05
2.56575e-05
4.79108e-06
2.43174e-05
4.17485e-05
5.06187e-05
4.63687e-05
3.7888e-05
2.56884e-05
4.5055e-06
2.24647e-05
3.94156e-05
4.98905e-05
4.70994e-05
3.77094e-05
2.62627e-05
5.3658e-06
2.51279e-05
4.28357e-05
4.9584e-05
4.80206e-05
3.68623e-05
2.45562e-05
4.9393e-06
2.36206e-05
4.01742e-05
5.11218e-05
4.74772e-05
3.81063e-05
2.56847e-05
6.17646e-06
2.5483e-05
4.31316e-05
5.01812e-05
4.61155e-05
3.64078e-05
2.10296e-05
5.43274e-06
2.43414e-05
4.14345e-05
5.07422e-05
4.63488e-05
3.55423e-05
2.28529e-05
8.01184e-06
2.78088e-05
4.49151e-05
5.11297e-05
4.48397e-05
3.19001e-05
1.63246e-05
6.26148e-06
2.48307e-05
4.09035e-05
5.17774e-05
4.76346e-05
3.57297e-05
1.90144e-05
1.5906e-05
1.15791e-05
9.9108e-06
9.5955e-06
9.54381e-06
9.53387e-06
9.5316e-06
1.57885e-05
1.10592e-05
9.77485e-06
9.47583e-06
9.42378e-06
9.41277e-06
9.40949e-06
1.58115e-05
1.31932e-05
1.05637e-05
9.60588e-06
9.38742e-06
9.33363e-06
9.32288e-06
1.28499e-05
1.49822e-05
1.1263e-05
9.6282e-06
9.23092e-06
9.15151e-06
9.13518e-06
1.53849e-05
1.39491e-05
1.07289e-05
9.56941e-06
9.29663e-06
9.23279e-06
9.21915e-06
1.05977e-05
1.71846e-05
1.22476e-05
9.76245e-06
9.12546e-06
9.00881e-06
8.98689e-06
1.18577e-05
1.607e-05
1.15447e-05
9.63988e-06
9.1703e-06
9.0762e-06
9.0567e-06
9.41062e-06
1.83724e-05
1.34184e-05
9.97239e-06
9.04881e-06
8.89096e-06
8.86402e-06
1.01851e-05
1.82425e-05
1.25462e-05
9.7685e-06
9.07265e-06
8.94623e-06
8.92211e-06
8.66527e-06
1.93079e-05
1.48031e-05
1.02775e-05
8.99882e-06
8.79112e-06
8.75891e-06
9.14243e-06
1.89602e-05
1.38347e-05
1.00091e-05
9.00733e-06
8.838e-06
8.80906e-06
8.19154e-06
2.04324e-05
1.64287e-05
1.07276e-05
8.98172e-06
8.70612e-06
8.6677e-06
8.47374e-06
1.9976e-05
1.54615e-05
1.04103e-05
8.97856e-06
8.74686e-06
8.71184e-06
7.9503e-06
2.1701e-05
1.82454e-05
1.13165e-05
8.99853e-06
8.63309e-06
8.5868e-06
8.09364e-06
2.11785e-05
1.7258e-05
1.09673e-05
8.98425e-06
8.66889e-06
8.6263e-06
7.90544e-06
2.30332e-05
2.02851e-05
1.20417e-05
9.05097e-06
8.57049e-06
8.51407e-06
7.95782e-06
2.24989e-05
1.92075e-05
1.16322e-05
9.0205e-06
8.60134e-06
8.54962e-06
7.9934e-06
2.43506e-05
2.26011e-05
1.29284e-05
9.13798e-06
8.5166e-06
8.44837e-06
7.99003e-06
2.38384e-05
2.13847e-05
1.24288e-05
9.08752e-06
8.54304e-06
8.48052e-06
8.15651e-06
2.55965e-05
2.52801e-05
1.4067e-05
9.26994e-06
8.47079e-06
8.38877e-06
8.12401e-06
2.51307e-05
2.38807e-05
1.34323e-05
9.1937e-06
8.49314e-06
8.41809e-06
8.36829e-06
2.6763e-05
2.7777e-05
1.55613e-05
9.46689e-06
8.43356e-06
8.33414e-06
8.31358e-06
2.63424e-05
2.66383e-05
1.47505e-05
9.3548e-06
8.45174e-06
8.36104e-06
8.59252e-06
2.7806e-05
3.00996e-05
1.74531e-05
9.74297e-06
8.40532e-06
8.2837e-06
8.53624e-06
2.74546e-05
2.89771e-05
1.64401e-05
9.58352e-06
8.41841e-06
8.30848e-06
8.8072e-06
2.8722e-05
3.24409e-05
1.96265e-05
1.01312e-05
8.3887e-06
8.23729e-06
8.75606e-06
2.84349e-05
3.13518e-05
1.84854e-05
9.9137e-06
8.39608e-06
8.26015e-06
9.02266e-06
2.95425e-05
3.47278e-05
2.20505e-05
1.06494e-05
8.38594e-06
8.19427e-06
8.9734e-06
2.93108e-05
3.36866e-05
2.07914e-05
1.03593e-05
8.38573e-06
8.21547e-06
9.21543e-06
3.02366e-05
3.68634e-05
2.46638e-05
1.12975e-05
8.398e-06
8.1545e-06
9.17583e-06
3.00581e-05
3.59147e-05
2.33079e-05
1.0929e-05
8.38826e-06
8.174e-06
9.37799e-06
3.08327e-05
3.884e-05
2.72835e-05
1.21194e-05
8.43068e-06
8.11793e-06
9.35132e-06
3.06957e-05
3.79854e-05
2.60185e-05
1.16775e-05
8.41146e-06
8.13601e-06
9.5327e-06
3.13658e-05
4.06946e-05
2.96659e-05
1.31087e-05
8.48899e-06
8.08446e-06
9.51198e-06
3.12664e-05
3.99107e-05
2.84034e-05
1.2595e-05
8.45753e-06
8.101e-06
9.6743e-06
3.18338e-05
4.24413e-05
3.20971e-05
1.42629e-05
8.57517e-06
8.05388e-06
9.6576e-06
3.17608e-05
4.17249e-05
3.08498e-05
1.36828e-05
8.53264e-06
8.0692e-06
9.78489e-06
3.22047e-05
4.40388e-05
3.44942e-05
1.55993e-05
8.69669e-06
8.0262e-06
9.7784e-06
3.21679e-05
4.34071e-05
3.32969e-05
1.49493e-05
8.64045e-06
8.04041e-06
9.85084e-06
3.24806e-05
4.54953e-05
3.68669e-05
1.71858e-05
8.87093e-06
8.00193e-06
9.86346e-06
3.24871e-05
4.49725e-05
3.57615e-05
1.64429e-05
8.7968e-06
8.01485e-06
9.91223e-06
3.27438e-05
4.68513e-05
3.92211e-05
1.90773e-05
9.11473e-06
7.98213e-06
9.93678e-06
3.2783e-05
4.64309e-05
3.81988e-05
1.81572e-05
8.9976e-06
7.99227e-06
9.99875e-06
3.30293e-05
4.82188e-05
4.16488e-05
2.12839e-05
9.43347e-06
7.9667e-06
1.00296e-05
3.31068e-05
4.78071e-05
4.06064e-05
2.01267e-05
9.24876e-06
7.973e-06
1.00722e-05
3.32266e-05
4.94149e-05
4.39749e-05
2.3711e-05
9.81916e-06
7.95633e-06
1.01064e-05
3.33143e-05
4.89958e-05
4.29296e-05
2.23894e-05
9.55466e-06
7.95771e-06
1.01226e-05
3.33837e-05
5.03607e-05
4.61634e-05
2.62314e-05
1.02897e-05
7.95098e-06
1.01485e-05
3.34381e-05
4.99788e-05
4.51742e-05
2.48945e-05
9.98139e-06
7.94961e-06
1.01616e-05
3.3559e-05
5.1151e-05
4.82861e-05
2.84451e-05
1.08659e-05
7.95264e-06
1.01795e-05
3.35734e-05
5.07703e-05
4.73644e-05
2.71516e-05
1.05296e-05
7.9488e-06
1.01962e-05
3.37121e-05
5.18872e-05
5.0275e-05
3.06898e-05
1.15685e-05
7.96542e-06
1.02164e-05
3.37498e-05
5.15108e-05
4.94776e-05
2.94669e-05
1.1224e-05
7.95937e-06
1.02413e-05
3.38577e-05
5.25367e-05
5.21572e-05
3.29881e-05
1.23087e-05
7.98162e-06
1.02664e-05
3.39347e-05
5.21864e-05
5.1467e-05
3.17966e-05
1.19836e-05
7.97642e-06
1.03805e-05
3.41092e-05
5.31539e-05
5.40292e-05
3.53676e-05
1.30646e-05
7.99948e-06
1.03563e-05
3.41464e-05
5.28497e-05
5.32802e-05
3.40093e-05
1.27104e-05
7.99052e-06
1.07267e-05
3.45481e-05
5.35478e-05
5.63e-05
3.80629e-05
1.39282e-05
8.02966e-06
1.05101e-05
3.4322e-05
5.33403e-05
5.50619e-05
3.62219e-05
1.35902e-05
8.01918e-06
1.06347e-05
3.40888e-05
5.33645e-05
5.67602e-05
3.991e-05
1.53907e-05
8.19343e-06
1.04267e-05
3.38166e-05
5.30381e-05
5.65975e-05
3.89235e-05
1.51786e-05
8.18812e-06
1.05948e-05
3.36818e-05
5.26119e-05
5.66246e-05
4.1222e-05
1.73724e-05
8.52304e-06
1.01896e-05
3.30917e-05
5.2031e-05
5.78798e-05
4.16276e-05
1.73278e-05
8.53421e-06
1.58436e-05
1.15241e-05
9.89399e-06
9.60329e-06
9.55627e-06
9.5473e-06
9.54563e-06
1.58555e-05
1.11276e-05
9.77662e-06
9.49652e-06
9.44961e-06
9.44086e-06
9.43933e-06
1.58989e-05
1.15788e-05
9.90973e-06
9.59413e-06
9.54253e-06
9.53272e-06
9.53043e-06
1.58888e-05
1.11268e-05
9.78241e-06
9.49051e-06
9.44015e-06
9.43065e-06
9.42908e-06
1.58358e-05
1.1516e-05
9.88642e-06
9.59554e-06
9.54979e-06
9.54128e-06
9.53971e-06
1.58212e-05
1.15132e-05
9.88657e-06
9.59635e-06
9.55102e-06
9.54271e-06
9.54071e-06
1.58247e-05
1.11531e-05
9.77417e-06
9.48899e-06
9.44275e-06
9.43426e-06
9.43171e-06
1.58295e-05
1.11433e-05
9.773e-06
9.486e-06
9.43963e-06
9.43106e-06
9.42846e-06
1.58708e-05
1.15425e-05
9.89429e-06
9.59774e-06
9.54997e-06
9.54091e-06
9.53862e-06
1.58987e-05
1.11257e-05
9.78247e-06
9.48803e-06
9.43708e-06
9.42727e-06
9.42323e-06
1.6499e-05
1.22966e-05
1.02933e-05
9.72828e-06
9.59907e-06
9.5611e-06
9.54928e-06
1.09394e-05
3.08309e-05
4.67922e-05
5.20063e-05
4.47775e-05
2.60282e-05
1.21833e-05
8.44386e-06
2.80799e-05
4.39846e-05
5.28093e-05
4.53264e-05
2.85696e-05
1.35274e-05
1.04459e-05
2.99701e-05
4.64247e-05
5.58528e-05
4.60247e-05
2.49184e-05
1.09899e-05
1.07873e-05
1.70957e-05
1.22245e-05
9.7635e-06
9.13394e-06
9.01897e-06
8.99724e-06
1.20903e-05
1.60112e-05
1.1562e-05
9.64839e-06
9.1813e-06
9.08651e-06
9.06726e-06
1.03734e-05
1.82916e-05
1.24977e-05
9.75311e-06
9.07852e-06
8.95641e-06
8.93344e-06
8.77368e-06
1.92774e-05
1.47154e-05
1.02162e-05
8.99378e-06
8.80029e-06
8.77036e-06
8.63406e-06
2.0008e-05
1.53272e-05
1.03117e-05
8.96606e-06
8.75495e-06
8.72263e-06
1.58311e-05
1.20783e-05
1.00056e-05
9.5451e-06
9.45914e-06
9.42652e-06
9.41712e-06
1.5845e-05
1.20795e-05
1.00099e-05
9.54989e-06
9.46256e-06
9.43008e-06
9.4213e-06
9.04796e-06
2.92253e-05
3.30567e-05
1.962e-05
9.94424e-06
8.34979e-06
8.22015e-06
9.05307e-06
2.93627e-05
3.40126e-05
2.08187e-05
1.01817e-05
8.34408e-06
8.19865e-06
9.27773e-06
1.8969e-05
1.37892e-05
9.97704e-06
9.01009e-06
8.84819e-06
8.82068e-06
9.23133e-06
2.99755e-05
3.52985e-05
2.20502e-05
1.04293e-05
8.34232e-06
8.17807e-06
8.30464e-06
2.55603e-05
2.46259e-05
1.33928e-05
9.08863e-06
8.45976e-06
8.39615e-06
8.67747e-06
2.76902e-05
2.94307e-05
1.64051e-05
9.43268e-06
8.38147e-06
8.28949e-06
8.29115e-06
2.51434e-05
2.33077e-05
1.28536e-05
9.04248e-06
8.48497e-06
8.42583e-06
9.39794e-06
3.06612e-05
3.8227e-05
2.60721e-05
1.14673e-05
8.3628e-06
8.12061e-06
9.63067e-06
3.15787e-05
4.17224e-05
3.08825e-05
1.34083e-05
8.46489e-06
8.05416e-06
9.84179e-06
3.23611e-05
4.48889e-05
3.57989e-05
1.62235e-05
8.72331e-06
7.99995e-06
1.00213e-05
3.29342e-05
4.76691e-05
4.05819e-05
1.98162e-05
9.1326e-06
7.95628e-06
1.00518e-05
3.32185e-05
4.98196e-05
4.50077e-05
2.47147e-05
9.92691e-06
7.93609e-06
1.01626e-05
3.36187e-05
5.15441e-05
4.93006e-05
2.94241e-05
1.11687e-05
7.94545e-06
1.03516e-05
3.39771e-05
5.27867e-05
5.31343e-05
3.42122e-05
1.26463e-05
7.98055e-06
1.03103e-05
3.37608e-05
5.37088e-05
5.59646e-05
3.86129e-05
1.45935e-05
8.07531e-06
8.17165e-06
2.25546e-05
1.88436e-05
1.12888e-05
8.94594e-06
8.60228e-06
8.55891e-06
1.26916e-05
3.51305e-05
5.40429e-05
6.12818e-05
4.50045e-05
1.69533e-05
8.3586e-06
1.58577e-05
1.15694e-05
9.88444e-06
9.57406e-06
9.52492e-06
9.51529e-06
9.51273e-06
1.55251e-05
1.39885e-05
1.07612e-05
9.58386e-06
9.30527e-06
9.24179e-06
9.22771e-06
9.28209e-06
2.96931e-05
4.58675e-05
5.51997e-05
4.62044e-05
2.75504e-05
1.31023e-05
1.07415e-05
3.17943e-05
4.92611e-05
5.31737e-05
4.37642e-05
2.44815e-05
1.17258e-05
1.58461e-05
1.3164e-05
1.05369e-05
9.59861e-06
9.38852e-06
9.33892e-06
9.32725e-06
1.58445e-05
1.11435e-05
9.7758e-06
9.48721e-06
9.43968e-06
9.43069e-06
9.42772e-06
1.1145e-05
3.24653e-05
5.13511e-05
5.86303e-05
4.58929e-05
1.98529e-05
8.96338e-06
8.85994e-06
2.98914e-05
4.83016e-05
5.36344e-05
4.06023e-05
2.02353e-05
9.02622e-06
1.11246e-05
3.36379e-05
5.02646e-05
5.5315e-05
4.33513e-05
2.11968e-05
9.65355e-06
1.00426e-05
3.27466e-05
5.08704e-05
5.99394e-05
4.49259e-05
1.91744e-05
8.86421e-06
9.40218e-06
3.0614e-05
3.74215e-05
2.46796e-05
1.10639e-05
8.35024e-06
8.13908e-06
1.57316e-05
1.11185e-05
9.7856e-06
9.47357e-06
9.42067e-06
9.40945e-06
9.40602e-06
1.14631e-05
3.53975e-05
5.2711e-05
5.57183e-05
4.03593e-05
1.68717e-05
8.32551e-06
1.06288e-05
3.45512e-05
5.39722e-05
5.73202e-05
3.95789e-05
1.50945e-05
8.10771e-06
1.04709e-05
3.42198e-05
5.30838e-05
5.42796e-05
3.5209e-05
1.30267e-05
7.99205e-06
1.03085e-05
3.39857e-05
5.18856e-05
5.0627e-05
3.04314e-05
1.14515e-05
7.94776e-06
1.01564e-05
3.35853e-05
5.03496e-05
4.65294e-05
2.59105e-05
1.02521e-05
7.93863e-06
1.01041e-05
3.32379e-05
4.85923e-05
4.19553e-05
2.10832e-05
9.33947e-06
7.95129e-06
1.04787e-05
3.41378e-05
5.33423e-05
5.61445e-05
3.78101e-05
1.41412e-05
8.05558e-06
1.03836e-05
3.41033e-05
5.24966e-05
5.24612e-05
3.27968e-05
1.22233e-05
7.96841e-06
1.02372e-05
3.3831e-05
5.11771e-05
4.86773e-05
2.81032e-05
1.0795e-05
7.93741e-06
1.01183e-05
3.3389e-05
4.95538e-05
4.4315e-05
2.35498e-05
9.76537e-06
7.94276e-06
1.00638e-05
3.30364e-05
4.73322e-05
3.95462e-05
1.8878e-05
9.01592e-06
7.96639e-06
9.882e-06
3.24637e-05
4.44696e-05
3.4609e-05
1.54672e-05
8.64395e-06
8.01242e-06
9.6677e-06
3.16216e-05
4.11773e-05
2.96656e-05
1.29067e-05
8.43681e-06
8.07025e-06
9.76414e-06
3.20415e-05
4.28722e-05
3.21441e-05
1.41095e-05
8.52665e-06
8.04015e-06
9.99122e-06
3.27965e-05
4.59661e-05
3.71027e-05
1.70314e-05
8.80028e-06
7.98763e-06
8.85422e-06
2.83779e-05
3.07248e-05
1.74207e-05
9.58117e-06
8.3691e-06
8.26557e-06
8.45676e-06
2.63154e-05
2.60434e-05