/*--------------------------------*- C++ -*----------------------------------*\
  =========                 |
  \\      /  F ield         | OpenFOAM: The Open Source CFD Toolbox
   \\    /   O peration     | Website:  https://openfoam.org
    \\  /    A nd           | Version:  12
     \\/     M anipulation  |
\*---------------------------------------------------------------------------*/
FoamFile
{
    format      ascii;
    class       surfaceScalarField;
    location    "11500";
    object      phi;
}
// * * * * * * * * * * * * * * * * * * * * * * * * * * * * * * * * * * * * * //

dimensions      [0 3 -1 0 0 0 0];

internalField   nonuniform List<scalar> 
55962
(
3.2535e-07
-3.8288e-09
6.19222e-06
3.71173e-07
-3.2012e-09
8.14422e-06
4.32293e-07
-7.05574e-09
1.01141e-05
3.41086e-07
-6.51683e-09
1.25141e-05
2.9883e-07
-8.55472e-09
1.48361e-05
2.16937e-07
-1.00457e-08
1.70214e-05
-1.10076e-08
1.82664e-05
9.72551e-08
-6.06955e-07
-9.97705e-09
4.94495e-06
-4.32802e-06
-9.40137e-07
-8.2964e-09
6.88682e-06
-6.54534e-06
-1.15855e-06
-6.1017e-09
8.72846e-06
-8.50394e-06
-1.21593e-06
-1.07209e-09
1.06593e-05
-1.06009e-05
-1.06214e-06
-2.89865e-09
1.27262e-05
-1.28771e-05
-7.72289e-07
-5.14075e-09
1.46268e-05
-1.49116e-05
1.14431e-08
1.56335e-05
-1.5991e-05
-4.26228e-07
-1.73764e-07
4.13182e-09
-4.44078e-06
4.61041e-06
-3.9934e-07
4.85237e-10
-6.74298e-06
6.96807e-06
-4.15019e-07
8.10361e-09
-9.02182e-06
9.02939e-06
-3.49138e-07
1.33336e-08
-1.11851e-05
1.11059e-05
-2.28659e-07
1.80693e-08
-1.34507e-05
1.33122e-05
-1.60687e-07
1.3791e-08
-1.5448e-05
1.53662e-05
-1.76989e-08
-1.65121e-05
1.64722e-05
-1.0306e-07
-5.04719e-08
4.39678e-09
4.30429e-06
-4.25822e-06
-1.57538e-07
1.3309e-08
6.79227e-06
-6.69852e-06
-1.42122e-07
6.99615e-09
9.06861e-06
-9.09103e-06
-9.72218e-08
1.8271e-08
1.12685e-05
-1.13317e-05
-6.63497e-08
-2.69131e-09
1.35413e-05
-1.35694e-05
-7.9412e-08
-7.27051e-09
1.56098e-05
-1.55895e-05
-4.89834e-08
1.66943e-05
-1.67133e-05
-1.13652e-08
-1.50319e-08
1.0847e-08
4.1362e-06
-4.13201e-06
-5.40977e-08
1.20803e-08
6.66428e-06
-6.6373e-06
-3.46214e-08
1.35224e-08
9.11728e-06
-9.15028e-06
-7.22292e-09
1.79923e-08
1.14778e-05
-1.15232e-05
-1.11064e-08
3.72227e-09
1.38102e-05
-1.38101e-05
-4.38354e-08
6.76415e-09
1.59045e-05
-1.58785e-05
-1.00609e-08
1.70027e-05
-1.70302e-05
-6.36072e-09
-7.22866e-09
6.35028e-09
4.01846e-06
-4.01758e-06
-1.61419e-08
7.06582e-09
6.50116e-06
-6.49931e-06
3.45244e-09
1.01306e-08
9.04647e-06
-9.07619e-06
2.073e-08
1.00657e-08
1.15632e-05
-1.15905e-05
2.32126e-09
-2.91066e-09
1.3948e-05
-1.39267e-05
-3.13212e-08
1.82696e-10
1.60576e-05
-1.60242e-05
-4.54652e-09
1.71725e-05
-1.7184e-05
-1.52642e-08
-5.85797e-09
4.34655e-09
3.94106e-06
-3.93954e-06
-3.6641e-09
5.40318e-09
6.34619e-06
-6.35379e-06
1.78527e-08
7.74332e-09
8.90712e-06
-8.93638e-06
3.21532e-08
5.08427e-09
1.1572e-05
-1.15914e-05
9.90442e-09
-7.15059e-09
1.40197e-05
-1.39903e-05
-1.8903e-08
-4.26987e-09
1.61388e-05
-1.61058e-05
-1.40601e-08
1.72689e-05
-1.72653e-05
-8.47695e-09
-4.31433e-09
4.39671e-09
3.89381e-06
-3.89389e-06
1.00998e-09
5.6844e-09
6.22566e-06
-6.23667e-06
2.28385e-08
7.5864e-09
8.75615e-06
-8.78556e-06
3.88673e-08
3.81844e-09
1.15444e-05
-1.15642e-05
1.55208e-08
-6.09403e-09
1.40806e-05
-1.40512e-05
-8.12131e-09
-2.86878e-09
1.6214e-05
-1.61875e-05
-1.07568e-08
1.73531e-05
-1.73469e-05
-3.53338e-09
-2.81382e-09
4.04175e-09
3.87158e-06
-3.87281e-06
2.77367e-09
5.14497e-09
6.14882e-06
-6.15956e-06
2.27122e-08
6.69534e-09
8.63341e-06
-8.66004e-06
4.12234e-08
4.10825e-09
1.15066e-05
-1.15292e-05
1.89101e-08
-4.3819e-09
1.4162e-05
-1.41353e-05
-2.63432e-09
-2.65605e-09
1.63248e-05
-1.63006e-05
-6.6051e-09
1.74732e-05
-1.74702e-05
9.96424e-10
-1.95269e-09
1.47376e-09
3.87061e-06
-3.87013e-06
2.64045e-09
3.12935e-09
6.10834e-06
-6.11606e-06
1.86073e-08
4.16328e-09
8.5514e-06
-8.57153e-06
3.95823e-08
1.88679e-09
1.14649e-05
-1.14878e-05
2.06518e-08
-3.28233e-09
1.42582e-05
-1.42359e-05
6.3246e-10
-1.1088e-09
1.64656e-05
-1.64444e-05
1.8981e-10
1.76282e-05
-1.76236e-05
-4.13073e-09
-4.13267e-09
2.60149e-09
3.84551e-06
-3.84398e-06
-1.48701e-09
2.77554e-09
6.04101e-06
-6.04644e-06
1.02654e-08
3.44701e-09
8.43604e-06
-8.45124e-06
3.13145e-08
2.52034e-09
1.13326e-05
-1.13562e-05
1.77988e-08
-3.40278e-09
1.42503e-05
-1.42334e-05
-2.60165e-09
1.12993e-09
1.65066e-05
-1.64873e-05
-3.66943e-09
1.7677e-05
-1.76699e-05
-6.03253e-09
-1.15341e-09
4.58278e-10
3.84043e-06
-3.83974e-06
1.64901e-09
1.65085e-09
6.00636e-06
-6.01081e-06
1.15777e-08
2.42088e-09
8.36504e-06
-8.37739e-06
3.19463e-08
2.72867e-09
1.12292e-05
-1.12523e-05
2.33292e-08
-8.25092e-10
1.42629e-05
-1.42535e-05
3.52339e-09
4.28668e-09
1.6591e-05
-1.65755e-05
-3.46374e-09
1.77738e-05
-1.77662e-05
-6.23481e-10
-3.06533e-09
-4.82144e-09
3.83472e-06
-3.82683e-06
-2.13675e-09
-5.48277e-09
5.97613e-06
-5.97157e-06
4.74907e-09
-6.02413e-09
8.30189e-06
-8.30275e-06
2.2172e-08
-6.92613e-09
1.11219e-05
-1.11324e-05
2.03219e-08
-1.16864e-08
1.42411e-05
-1.42276e-05
1.80318e-09
-7.94758e-09
1.66583e-05
-1.66319e-05
-2.02441e-08
1.78578e-05
-1.78323e-05
-3.43323e-09
-4.74293e-09
5.15235e-09
3.78812e-06
-3.78853e-06
-5.72764e-09
3.91816e-09
5.89312e-06
-5.89605e-06
-1.60836e-09
2.71521e-09
8.17279e-06
-8.17962e-06
1.17249e-08
6.35879e-10
1.09277e-05
-1.09416e-05
1.47481e-08
-4.81724e-09
1.40776e-05
-1.40758e-05
-2.96794e-09
-3.68125e-09
1.65811e-05
-1.65597e-05
-8.80258e-09
1.77915e-05
-1.77659e-05
-1.9771e-08
-1.21114e-09
4.64983e-09
3.79924e-06
-3.80266e-06
-1.43065e-09
6.01863e-09
5.89254e-06
-5.89833e-06
8.05687e-10
6.29062e-09
8.15525e-06
-8.16377e-06
9.23084e-09
5.39263e-09
1.08798e-05
-1.08936e-05
1.28919e-08
1.3848e-09
1.4062e-05
-1.4067e-05
-6.02087e-09
-8.14592e-10
1.66864e-05
-1.66666e-05
-1.26211e-08
1.79244e-05
-1.78946e-05
-2.3158e-08
-7.32429e-09
-2.26136e-09
3.85611e-06
-3.84652e-06
-1.47704e-08
-1.42745e-09
5.95499e-06
-5.94612e-06
-2.14419e-08
-8.07306e-10
8.21954e-06
-8.21206e-06
-2.3564e-08
-7.95786e-10
1.09345e-05
-1.09316e-05
-2.43383e-08
-3.40649e-09
1.41374e-05
-1.41333e-05
-4.44068e-08
-5.17049e-09
1.68925e-05
-1.68672e-05
-1.52407e-08
1.81683e-05
-1.81296e-05
-6.79019e-08
-1.2937e-08
1.84221e-09
3.86057e-06
-3.84947e-06
-2.40881e-08
7.7979e-09
5.93555e-06
-5.9322e-06
-3.52457e-08
1.44619e-08
8.17828e-06
-8.18159e-06
-4.76655e-08
2.40548e-08
1.08562e-05
-1.08678e-05
-5.67304e-08
3.24209e-08
1.4021e-05
-1.40444e-05
-8.51557e-08
4.54232e-08
1.68636e-05
-1.68806e-05
5.55289e-08
1.81484e-05
-1.81797e-05
-1.09361e-07
-1.3721e-07
4.29611e-06
-2.24407e-07
-3.93449e-06
-2.69041e-07
6.30382e-06
-2.45837e-07
-5.92616e-06
-4.20169e-07
8.51649e-06
-2.55736e-07
-8.10963e-06
-5.92733e-07
1.11419e-05
-2.63562e-07
-1.07058e-05
-7.49858e-07
1.4158e-05
-2.55993e-07
-1.37449e-05
-8.6548e-07
1.68479e-05
-2.28276e-07
-1.6504e-05
1.79675e-05
-2.18762e-07
-1.77438e-05
-8.70407e-07
-4.36668e-07
-3.43418e-06
3.68687e-06
1.83973e-07
-7.5129e-07
-5.14492e-06
5.38645e-06
7.30866e-08
-1.14068e-06
-6.99312e-06
7.26565e-06
1.16864e-07
-1.55973e-06
-9.1659e-06
9.44051e-06
1.44438e-07
-1.91446e-06
-1.16657e-05
1.18837e-05
1.36711e-07
-2.10469e-06
-1.38958e-05
1.39658e-05
1.20202e-07
-1.48007e-05
1.46721e-05
3.04135e-08
-2.00651e-06
2.01748e-07
6.60179e-07
2.97285e-07
1.06337e-06
2.72039e-07
1.54861e-06
1.43583e-07
2.10446e-06
-7.93617e-08
2.7152e-06
-3.49219e-07
3.22194e-06
3.17288e-06
-3.55243e-07
-1.1842e-06
-1.9236e-06
6.79467e-06
-2.14406e-06
-2.80295e-06
9.14926e-06
-2.96312e-06
-3.78018e-06
1.18649e-05
-3.6015e-06
-4.94832e-06
1.50272e-05
-3.85988e-06
-6.29635e-06
1.84385e-05
-3.6715e-06
-7.57801e-06
2.13554e-05
-8.28071e-06
2.2152e-05
-2.87069e-06
-1.21112e-06
-5.24701e-06
6.6421e-06
-2.28153e-06
-7.9541e-06
9.09759e-06
-3.23926e-06
-1.07781e-05
1.18526e-05
-4.0093e-06
-1.41364e-05
1.50509e-05
-4.50877e-06
-1.78361e-05
1.84723e-05
-4.66783e-06
-2.1025e-05
2.13042e-05
-2.22489e-05
2.2138e-05
-4.52649e-06
-1.0467e-06
-3.16832e-06
-1.24713e-06
5.46215e-06
-2.02273e-06
-4.8495e-06
-2.21552e-06
8.04104e-06
-2.84644e-06
-6.6485e-06
-3.22982e-06
1.0702e-05
-3.49596e-06
-8.75462e-06
-4.42641e-06
1.38305e-05
-3.83608e-06
-1.11444e-05
-5.85737e-06
1.73419e-05
-3.73362e-06
-1.33589e-05
-7.17594e-06
2.04324e-05
-1.43579e-05
-7.71871e-06
2.16303e-05
-3.28727e-06
-8.12054e-07
-1.29589e-06
-2.37778e-06
4.48573e-06
-1.44545e-06
-2.37202e-06
-3.93959e-06
6.94501e-06
-1.97895e-06
-3.48025e-06
-5.48379e-06
9.49755e-06
-2.35495e-06
-4.7693e-06
-7.33884e-06
1.24841e-05
-2.44314e-06
-6.28621e-06
-9.52502e-06
1.58994e-05
-2.16886e-06
-7.64731e-06
-1.17278e-05
1.91008e-05
-8.12425e-06
-1.31113e-05
2.0795e-05
-1.72823e-06
7.3967e-07
-5.20388e-06
1.19284e-06
-7.67468e-06
1.39958e-06
-1.03355e-05
1.36129e-06
-1.34856e-05
1.06075e-06
-1.71301e-05
5.77255e-07
-2.05227e-05
-2.20803e-05
1.75405e-07
-4.66943e-07
-8.65242e-07
-1.79538e-06
3.12757e-06
-7.41759e-07
-2.06673e-06
-3.35863e-06
5.70017e-06
-9.40915e-07
-3.15461e-06
-4.81994e-06
8.17371e-06
-1.01506e-06
-4.38033e-06
-6.57523e-06
1.10297e-05
-9.131e-07
-5.77679e-06
-8.68628e-06
1.43611e-05
-6.43195e-07
-7.06386e-06
-1.09168e-05
1.77107e-05
-7.50609e-06
-1.26105e-05
1.97164e-05
-2.42941e-07
8.83062e-07
-4.12609e-06
1.39279e-06
-6.51605e-06
1.73877e-06
-8.98438e-06
1.90648e-06
-1.18869e-05
1.85046e-06
-1.52458e-05
1.54842e-06
-1.84896e-05
-2.02841e-05
1.21506e-06
-3.55818e-07
-5.23932e-07
-1.32492e-06
2.20467e-06
-3.86472e-07
-1.81475e-06
-2.82814e-06
4.67354e-06
-3.31616e-07
-2.8962e-06
-4.23218e-06
7.07353e-06
-1.69645e-07
-4.08836e-06
-5.88692e-06
9.81331e-06
1.50765e-07
-5.48321e-06
-7.87991e-06
1.30427e-05
6.34354e-07
-6.81879e-06
-1.01044e-05
1.64396e-05
-7.48587e-06
-1.17631e-05
1.88218e-05
1.06146e-06
1.05402e-06
-3.37334e-06
1.66326e-06
-5.78261e-06
2.12021e-06
-8.17309e-06
2.43444e-06
-1.09778e-05
2.53599e-06
-1.4271e-05
2.3873e-06
-1.75869e-05
-1.96444e-05
1.93528e-06
-3.1419e-07
-4.09543e-07
-9.60423e-07
1.68416e-06
-1.76322e-07
-1.72092e-06
-2.49819e-06
4.08124e-06
2.03486e-08
-2.79062e-06
-3.88343e-06
6.47738e-06
2.84797e-07
-4.0487e-06
-5.40306e-06
9.18731e-06
6.9709e-07
-5.51441e-06
-7.24384e-06
1.2346e-05
1.19458e-06
-6.98912e-06
-9.24404e-06
1.57357e-05
-8.00406e-06
-1.08552e-05
1.81868e-05
1.86712e-06
1.14074e-06
-2.87521e-06
1.87172e-06
-5.28003e-06
2.48609e-06
-7.63717e-06
2.9312e-06
-1.03807e-05
3.15361e-06
-1.36167e-05
3.05321e-06
-1.69931e-05
-1.92808e-05
2.56689e-06
-3.25819e-07
-5.48674e-07
-7.10944e-07
1.58544e-06
-2.15056e-07
-1.85619e-06
-2.20753e-06
3.95295e-06
-2.96226e-08
-3.01537e-06
-3.5059e-06
6.33584e-06
2.1683e-07
-4.32102e-06
-4.95339e-06
9.02795e-06
5.65001e-07
-5.85942e-06
-6.67723e-06
1.21885e-05
1.00243e-06
-7.53679e-06
-8.49198e-06
1.55913e-05
-8.53622e-06
-9.88144e-06
1.81424e-05
1.27771e-06
1.20255e-06
-2.71165e-06
1.95936e-06
-5.11119e-06
2.53019e-06
-7.46963e-06
3.00154e-06
-1.01954e-05
3.30151e-06
-1.34032e-05
3.28364e-06
-1.6763e-05
-1.91065e-05
2.99866e-06
-3.43351e-07
-8.22564e-07
-6.60251e-07
1.82617e-06
-2.8044e-07
-2.1615e-06
-2.10137e-06
4.19996e-06
-1.51255e-07
-3.34483e-06
-3.34982e-06
6.56546e-06
5.44259e-08
-4.74113e-06
-4.71864e-06
9.25409e-06
3.84886e-07
-6.38304e-06
-6.37246e-06
1.2425e-05
8.72005e-07
-8.19817e-06
-8.11176e-06
1.58228e-05
-9.58532e-06
-9.19474e-06
1.83226e-05
1.32951e-06
1.1961e-06
-2.72961e-06
1.92484e-06
-5.09777e-06
2.50121e-06
-7.42711e-06
2.94326e-06
-1.01366e-05
3.21722e-06
-1.33342e-05
3.20614e-06
-1.66791e-05
-1.90267e-05
2.76604e-06
-4.53707e-07
-1.24768e-06
-6.5808e-07
2.35946e-06
-6.10645e-07
-2.58562e-06
-2.08503e-06
4.82759e-06
-6.73324e-07
-3.83823e-06
-3.30969e-06
7.2106e-06
-6.08234e-07
-5.30316e-06
-4.71025e-06
9.94833e-06
-3.43942e-07
-7.08105e-06
-6.34448e-06
1.31612e-05
6.60001e-08
-9.01204e-06
-7.95222e-06
1.65543e-05
-1.05241e-05
-8.85623e-06
1.88845e-05
5.61795e-07
1.05599e-06
-2.96392e-06
1.71839e-06
-5.34939e-06
2.2205e-06
-7.69016e-06
2.62577e-06
-1.04271e-05
2.82579e-06
-1.36535e-05
2.70306e-06
-1.70011e-05
-1.92181e-05
2.20236e-06
-4.44616e-07
-1.77121e-06
-9.04804e-07
3.12063e-06
-7.11336e-07
-3.20237e-06
-2.19505e-06
5.66414e-06
-8.97801e-07
-4.55244e-06
-3.38641e-06
8.12531e-06
-9.72662e-07
-6.15018e-06
-4.73212e-06
1.09572e-05
-8.84191e-07
-8.06377e-06
-6.28038e-06
1.42557e-05
-5.93154e-07
-1.01646e-05
-7.73224e-06
1.76059e-05
-1.17124e-05
-8.31118e-06
1.9602e-05
-1.71592e-07
1.03218e-06
-3.46147e-06
1.65593e-06
-5.91115e-06
2.13269e-06
-8.33889e-06
2.44517e-06
-1.11729e-05
2.51624e-06
-1.44793e-05
2.22078e-06
-1.78214e-05
-1.98737e-05
1.5259e-06
-8.64212e-07
-2.27028e-06
-1.42795e-06
4.56244e-06
-1.45415e-06
-3.82244e-06
-2.53948e-06
6.95186e-06
-1.95625e-06
-5.33222e-06
-3.62711e-06
9.46142e-06
-2.31175e-06
-7.12035e-06
-4.92935e-06
1.24052e-05
-2.41674e-06
-9.21243e-06
-6.46782e-06
1.57852e-05
-2.15173e-06
-1.13456e-05
-7.89495e-06
1.89756e-05
-1.27744e-05
-8.24005e-06
2.06081e-05
-1.74543e-06
9.66336e-07
-4.14143e-06
1.51756e-06
-6.56872e-06
1.87142e-06
-9.07248e-06
2.03544e-06
-1.20165e-05
1.96612e-06
-1.54235e-05
1.65086e-06
-1.87626e-05
-2.06543e-05
1.21958e-06
-1.27003e-06
-2.26299e-06
-2.60969e-06
6.14271e-06
-2.33353e-06
-3.49273e-06
-3.95085e-06
8.50709e-06
-3.20802e-06
-4.83558e-06
-5.39117e-06
1.11012e-05
-3.80526e-06
-6.42296e-06
-7.11258e-06
1.41328e-05
-3.98909e-06
-8.2265e-06
-9.0975e-06
1.75078e-05
-3.75254e-06
-9.81155e-06
-1.09508e-05
2.05258e-05
-1.01234e-05
-1.20819e-05
2.14946e-05
-3.0419e-06
2.02152e-07
-4.38874e-06
3.32378e-07
-6.42591e-06
3.47551e-07
-8.63093e-06
2.00709e-07
-1.12244e-05
-1.24624e-07
-1.41975e-05
-6.00655e-07
-1.69135e-05
-1.79065e-05
-1.09831e-06
3.96367e-07
-4.434e-06
6.49542e-07
-6.74351e-06
7.87745e-07
-9.15648e-06
7.54401e-07
-1.20086e-05
5.12793e-07
-1.53237e-05
6.913e-08
-1.84021e-05
-1.98212e-05
-4.31546e-07
1.25163e-06
-7.74576e-06
1.84484e-06
-1.07628e-05
2.08257e-06
-1.42456e-05
1.91546e-06
-1.83957e-05
1.29197e-06
-2.307e-05
2.42396e-07
-2.71513e-05
-2.87583e-05
-9.669e-07
3.28654e-07
6.18126e-06
3.79338e-07
8.13295e-06
4.41442e-07
1.0099e-05
3.53207e-07
1.24981e-05
3.07809e-07
1.48221e-05
2.20425e-07
1.70068e-05
1.82274e-05
1.17778e-07
-6.18017e-07
5.0056e-06
-4.39756e-06
-9.55102e-07
6.98703e-06
-6.65824e-06
-1.18116e-06
8.87363e-06
-8.65368e-06
-1.24435e-06
1.08494e-05
-1.07872e-05
-1.0973e-06
1.29632e-05
-1.31132e-05
-8.17473e-07
1.49065e-05
-1.51915e-05
1.59403e-05
-1.62839e-05
-4.62454e-07
-3.76617e-07
-4.75746e-06
5.12201e-06
1.20668e-08
-7.43924e-07
-7.11154e-06
7.46684e-06
1.20146e-08
-8.40821e-07
-9.46782e-06
9.5605e-06
4.22355e-09
-7.93535e-07
-1.17442e-05
1.16992e-05
-2.27593e-09
-5.78364e-07
-1.4199e-05
1.399e-05
-6.21217e-09
-2.8974e-07
-1.64124e-05
1.613e-05
-6.1938e-09
-1.7564e-05
1.73406e-05
-1.56978e-08
-5.06034e-08
1.97635e-07
5.04962e-08
2.61395e-07
-1.88275e-07
1.31743e-07
-4.6454e-07
-2.40876e-08
-7.39026e-07
-2.22942e-07
-1.03686e-06
-3.75287e-07
-1.35355e-06
-1.59122e-06
-4.07778e-07
-1.76506e-07
-4.62106e-06
4.80169e-06
-4.02106e-07
-7.03168e-06
7.25776e-06
-4.09191e-07
-9.41448e-06
9.42966e-06
-3.33776e-07
-1.16686e-05
1.16066e-05
-1.95782e-07
-1.40281e-05
1.39082e-05
-1.01034e-07
-1.61292e-05
1.60482e-05
-1.72343e-05
1.71856e-05
-6.99613e-08
2.80534e-07
2.20423e-07
5.14282e-07
2.01411e-07
4.66899e-07
1.93404e-07
2.83598e-07
2.13857e-07
5.23758e-08
1.93127e-07
-1.06418e-07
1.59611e-07
1.10842e-07
-1.11014e-07
-1.0732e-07
-4.49282e-06
4.60272e-06
-2.58341e-09
-2.66556e-07
-6.96692e-06
7.13609e-06
-9.9396e-09
-2.54454e-07
-9.41414e-06
9.40798e-06
-5.94023e-09
-1.79516e-07
-1.16963e-05
1.16296e-05
-8.18714e-09
-1.04413e-07
-1.40306e-05
1.39602e-05
-4.64676e-09
-7.94499e-08
-1.61205e-05
1.60954e-05
9.50827e-11
-1.73049e-05
1.71939e-05
4.63697e-08
-1.47615e-08
1.81748e-07
1.27125e-07
3.75186e-07
9.74066e-08
3.35605e-07
5.51009e-08
1.78625e-07
6.72421e-08
1.58043e-08
4.03692e-08
-7.73756e-08
2.08886e-08
-6.05925e-08
-1.36165e-07
-5.62386e-08
-4.42796e-06
4.48859e-06
-1.52996e-07
-6.97387e-06
7.08394e-06
-1.31017e-07
-9.48928e-06
9.4743e-06
-6.45997e-08
-1.18301e-05
1.17819e-05
-3.28892e-08
-1.41799e-05
1.41455e-05
-4.87696e-08
-1.62944e-05
1.6303e-05
-1.74909e-05
1.74202e-05
-2.70695e-08
1.08005e-07
6.67554e-08
2.32348e-07
3.78726e-08
2.05784e-07
-5.47366e-08
8.63795e-08
-8.11348e-08
-2.67893e-08
-1.06581e-07
-6.79113e-08
-1.57865e-07
-2.64221e-07
-1.00679e-07
-2.84553e-08
-4.35757e-06
4.39577e-06
-9.74798e-09
-8.77538e-08
-6.94979e-06
7.02559e-06
-1.65066e-08
-6.22923e-08
-9.52906e-06
9.51607e-06
-1.24702e-08
-6.95417e-09
-1.19416e-05
1.19067e-05
-2.04935e-08
4.3869e-09
-1.43133e-05
1.4304e-05
-1.98238e-09
-2.15386e-08
-1.64497e-05
1.64792e-05
-3.61252e-09
-1.76571e-05
1.76141e-05
1.60381e-08
5.4048e-09
7.4784e-08
5.6238e-08
1.71546e-07
3.73899e-08
1.61824e-07
-4.50426e-08
7.38548e-08
-7.16475e-08
-5.97721e-09
-8.80011e-08
-2.71141e-08
-1.25519e-07
-2.19593e-07
-4.4455e-08
-1.46526e-08
-4.27514e-06
4.30064e-06
-5.0985e-08
-6.88142e-06
6.92984e-06
-2.42482e-08
-9.50714e-06
9.49393e-06
2.05536e-08
-1.19884e-05
1.19615e-05
1.87491e-08
-1.43773e-05
1.43829e-05
-1.33457e-08
-1.65261e-05
1.6565e-05
-1.77363e-05
1.77086e-05
4.26859e-09
6.34023e-08
5.72359e-08
1.50157e-07
5.74131e-08
1.60015e-07
-9.3091e-10
9.32045e-08
-1.48255e-08
2.50578e-08
-5.2194e-09
6.43418e-09
-2.8268e-08
-1.21559e-07
5.84692e-09
-8.12382e-09
-4.19936e-06
4.21518e-06
-7.69602e-09
-2.76994e-08
-6.79276e-06
6.8206e-06
-8.25851e-09
-1.56032e-09
-9.44788e-06
9.43331e-06
-1.15675e-08
3.4971e-08
-1.19981e-05
1.19748e-05
-1.32963e-08
2.33566e-08
-1.44048e-05
1.44165e-05
-6.91358e-11
-1.00267e-08
-1.65645e-05
1.66009e-05
-3.04648e-09
-1.77739e-05
1.77481e-05
7.79658e-09
8.01875e-09
5.18573e-08
4.94154e-08
1.31186e-07
5.77443e-08
1.54438e-07
2.27988e-08
1.00984e-07
1.69165e-08
4.27125e-08
3.63349e-08
1.86602e-08
2.45348e-08
-4.4713e-08
-1.94547e-09
-4.9682e-09
-4.1381e-06
4.14942e-06
-1.22442e-08
-6.7046e-06
6.71894e-06
1.51041e-08
-9.37657e-06
9.35935e-06
4.54343e-08
-1.19971e-05
1.19768e-05
2.68082e-08
-1.44272e-05
1.44429e-05
-7.36083e-09
-1.65953e-05
1.66297e-05
-1.78059e-05
1.77852e-05
8.77786e-09
3.87427e-08
3.83381e-08
1.06112e-07
4.86293e-08
1.37834e-07
2.50175e-08
9.61985e-08
1.93749e-08
4.50694e-08
4.04146e-08
2.13864e-08
2.92739e-08
-3.66309e-08
1.7232e-10
-2.69065e-09
-4.09366e-06
4.10176e-06
-5.41088e-09
-1.135e-09
-6.62603e-06
6.6312e-06
-6.72109e-09
2.76005e-08
-9.30302e-06
9.28357e-06
-9.28729e-09
5.40926e-08
-1.19973e-05
1.19784e-05
-7.61893e-09
3.19056e-08
-1.4458e-05
1.44755e-05
4.66888e-09
8.41798e-11
-1.66368e-05
1.66673e-05
1.24133e-09
-1.78459e-05
1.783e-05
9.91278e-09
6.07998e-09
2.69996e-08
2.87594e-08
8.08272e-08
3.90786e-08
1.17184e-07
1.99743e-08
8.52457e-08
1.15074e-08
3.96634e-08
3.0546e-08
1.57375e-08
1.68303e-08
-4.85515e-08
3.61704e-09
-1.57388e-09
-4.06196e-06
4.06789e-06
4.57306e-09
-6.55678e-06
6.55604e-06
3.37635e-08
-9.22868e-06
9.20723e-06
5.79122e-08
-1.19955e-05
1.19765e-05
3.30588e-08
-1.44947e-05
1.45124e-05
1.49468e-09
-1.66835e-05
1.67108e-05
-1.78946e-05
1.78764e-05
5.61527e-09
1.87657e-08
2.10332e-08
6.43452e-08
2.88375e-08
1.03804e-07
1.54354e-08
8.1454e-08
5.23338e-09
4.02053e-08
2.20563e-08
1.71435e-08
6.93004e-09
-5.37683e-08
6.33186e-09
-1.34649e-09
-4.03761e-06
4.04329e-06
-4.33539e-09
6.59425e-09
-6.49512e-06
6.49245e-06
-5.27535e-09
3.5099e-08
-9.15245e-06
9.13125e-06
-7.29776e-09
5.77385e-08
-1.19868e-05
1.19685e-05
-4.36862e-09
3.12336e-08
-1.45325e-05
1.45518e-05
7.24625e-09
3.58409e-10
-1.67331e-05
1.67593e-05
4.68365e-09
-1.79455e-05
1.79333e-05
1.49688e-08
-2.43206e-09
1.29933e-08
1.72801e-08
5.02834e-08
2.36289e-08
8.95666e-08
1.54919e-08
7.44675e-08
4.75756e-09
3.49379e-08
1.94004e-08
9.2735e-09
3.28934e-09
-5.03447e-08
-9.47094e-09
-1.96549e-11
-4.0191e-06
4.02351e-06
9.72943e-09
-6.44123e-06
6.43716e-06
3.85494e-08
-9.07707e-06
9.05583e-06
6.25213e-08
-1.19711e-05
1.19509e-05
3.67784e-08
-1.45692e-05
1.45889e-05
7.99689e-09
-1.67822e-05
1.68081e-05
-1.79952e-05
1.79893e-05
3.1345e-09
9.49959e-09
1.46987e-08
4.084e-08
1.98872e-08
8.01959e-08
1.48259e-08
7.24189e-08
5.20434e-09
3.74604e-08
1.74981e-08
1.31654e-08
1.43047e-09
-4.96395e-08
8.78616e-10
-8.95996e-11
-4.00561e-06
4.00957e-06
-3.86915e-09
9.30215e-09
-6.3964e-06
6.39193e-06
-4.9193e-09
3.6183e-08
-9.00577e-06
8.98558e-06
-6.69165e-09
6.03647e-08
-1.19484e-05
1.19277e-05
-3.40633e-09
3.4436e-08
-1.46076e-05
1.46272e-05
6.25469e-09
5.32885e-09
-1.68336e-05
1.686e-05
2.66482e-09
-1.80459e-05
1.80473e-05
1.02582e-08
-6.31134e-09
7.17494e-09
1.07299e-08
3.32586e-08
1.46791e-08
7.09946e-08
1.23281e-08
7.1011e-08
2.47894e-09
4.00413e-08
1.22743e-08
1.86028e-08
-4.04168e-09
-5.00723e-08
1.20896e-08
2.05107e-10
-3.99677e-06
4.00061e-06
9.41506e-09
-6.35947e-06
6.35541e-06
3.41322e-08
-8.94177e-06
8.92375e-06
5.86478e-08
-1.1921e-05
1.19006e-05
3.50111e-08
-1.46473e-05
1.46666e-05
7.9017e-09
-1.68924e-05
1.69169e-05
-1.81072e-05
1.81082e-05
2.60612e-10
4.05358e-09
8.73865e-09
2.47155e-08
1.17929e-08
5.83729e-08
1.01469e-08
6.41168e-08
9.43804e-10
3.57402e-08
8.29035e-09
1.28403e-08
-9.481e-09
-4.70895e-08
5.74076e-11
-4.16753e-10
-3.98977e-06
3.99377e-06
-3.58184e-09
7.85562e-09
-6.32697e-06
6.32383e-06
-5.12562e-09
2.95599e-08
-8.88276e-06
8.86753e-06
-6.47129e-09
5.3754e-08
-1.18854e-05
1.18652e-05
-3.91984e-09
3.10817e-08
-1.46819e-05
1.4702e-05
2.61899e-09
3.61191e-09
-1.69443e-05
1.69743e-05
-2.60788e-09
-1.816e-05
1.81749e-05
-3.76774e-09
-7.55357e-09
2.03842e-09
8.80518e-09
1.89243e-08
1.15485e-08
4.87327e-08
1.1182e-08
6.0219e-08
3.6474e-09
3.52282e-08
9.64224e-09
1.25437e-08
-4.69739e-09
-4.3992e-08
4.78762e-09
-8.36206e-10
-3.98404e-06
3.98635e-06
6.30671e-09
-6.29777e-06
6.29375e-06
2.53883e-08
-8.82746e-06
8.81254e-06
5.00752e-08
-1.18409e-05
1.18181e-05
3.08168e-08
-1.47088e-05
1.47248e-05
5.39611e-09
-1.69963e-05
1.70206e-05
-1.82111e-05
1.82263e-05
-9.59408e-09
7.11188e-10
9.01254e-09
1.42174e-08
1.25549e-08
4.01341e-08
1.41514e-08
5.51445e-08
9.26986e-09
3.29596e-08
1.53242e-08
1.11892e-08
-1.48532e-10
-2.92509e-08
4.21329e-09
-1.05862e-09
-3.97682e-06
3.97819e-06
-3.18424e-10
4.86603e-09
-6.26872e-06
6.264e-06
-1.19905e-09
2.16614e-08
-8.77336e-06
8.75858e-06
-2.01016e-09
4.74623e-08
-1.17848e-05
1.17599e-05
-9.4777e-10
3.13965e-08
-1.47229e-05
1.47337e-05
5.2589e-09
8.99053e-09
-1.70354e-05
1.70562e-05
1.6485e-09
-1.82566e-05
1.82635e-05
4.0655e-09
-1.9645e-09
1.16404e-09
8.37237e-09
1.34611e-08
1.27357e-08
3.66871e-08
1.59536e-08
5.58221e-08
1.41882e-08
3.70988e-08
2.06812e-08
1.6091e-08
6.145e-09
-2.27971e-08
8.6209e-09
-1.70708e-09
-3.96608e-06
3.97039e-06
2.55449e-09
-6.23691e-06
6.23542e-06
1.65544e-08
-8.71673e-06
8.70617e-06
4.08736e-08
-1.17155e-05
1.16937e-05
2.71515e-08
-1.47196e-05
1.47299e-05
6.20473e-09
-1.70609e-05
1.70829e-05
-1.82864e-05
1.82933e-05
-4.3767e-09
1.15457e-09
1.09562e-08
1.15082e-08
1.67356e-08
3.1787e-08
2.15728e-08
5.28393e-08
2.3362e-08
3.62697e-08
3.0647e-08
1.46866e-08
1.69048e-08
-1.01287e-08
1.89716e-09
-2.33936e-09
-3.95225e-06
3.95801e-06
-3.41927e-09
8.27415e-10
-6.20197e-06
6.20298e-06
-4.1761e-09
1.2767e-08
-8.65658e-06
8.64941e-06
-4.77099e-09
3.55649e-08
-1.16339e-05
1.16153e-05
-4.26367e-09
2.46254e-08
-1.4696e-05
1.47065e-05
4.3547e-10
4.62967e-09
-1.70679e-05
1.70931e-05
-5.20172e-09
-1.82964e-05
1.83068e-05
-3.38694e-09
-2.38654e-09
2.51621e-09
1.56254e-08
1.18146e-08
2.41501e-08
2.97786e-08
3.16338e-08
5.16215e-08
3.79916e-08
3.79261e-08
4.75883e-08
1.63619e-08
3.66225e-08
1.85271e-08
-5.23073e-09
-2.82382e-09
-3.9409e-06
3.94419e-06
-2.36693e-10
-6.17118e-06
6.17024e-06
1.04722e-08
-8.60196e-06
8.59367e-06
3.27733e-08
-1.15537e-05
1.15341e-05
2.59503e-08
-1.46679e-05
1.46739e-05
7.1603e-09
-1.70749e-05
1.7098e-05
-1.83095e-05
1.83155e-05
-2.31427e-09
2.90711e-09
1.4198e-08
1.09822e-08
2.37305e-08
2.70052e-08
3.14236e-08
4.97249e-08
3.89316e-08
3.74715e-08
5.08792e-08
1.40976e-08
4.15408e-08
2.68272e-08
-1.54357e-08
-1.35299e-09
-3.9406e-06
3.93809e-06
3.85652e-09
1.5333e-09
-6.15654e-06
6.15035e-06
3.29936e-09
1.1785e-08
-8.56902e-06
8.55599e-06
2.78399e-09
3.36421e-08
-1.14983e-05
1.14739e-05
2.55198e-09
3.05146e-08
-1.46625e-05
1.46596e-05
6.08578e-09
1.3838e-08
-1.71118e-05
1.71296e-05
-1.16698e-09
-1.83527e-05
1.83536e-05
2.92416e-09
1.00194e-08
2.19067e-10
3.37369e-09
6.19152e-09
7.73223e-09
1.93878e-08
1.14554e-08
4.08191e-08
1.43713e-08
3.40288e-08
1.81573e-08
1.50066e-08
5.23815e-09
-1.42226e-08
-7.94688e-09
1.2064e-09
-3.95186e-06
3.94584e-06
4.78268e-09
-6.16131e-06
6.15226e-06
1.4298e-08
-8.56337e-06
8.54783e-06
3.4351e-08
-1.14776e-05
1.14506e-05
3.34821e-08
-1.46932e-05
1.46824e-05
1.6286e-08
-1.71981e-05
1.72074e-05
-1.84527e-05
1.84412e-05
7.58949e-09
-6.47237e-09
-7.29672e-09
-6.34063e-09
-1.10923e-08
1.82027e-09
-1.5539e-08
2.05327e-08
-2.24298e-08
1.76056e-08
-3.07095e-08
2.2369e-09
-5.31277e-08
-8.60053e-08
-1.09201e-08
3.2308e-09
-3.96581e-06
3.9619e-06
6.82052e-10
7.6919e-09
-6.1741e-06
6.16742e-06
2.22443e-09
1.68334e-08
-8.57073e-06
8.55808e-06
3.50625e-09
3.51667e-08
-1.14739e-05
1.14501e-05
5.4522e-09
3.62326e-08
-1.47372e-05
1.47247e-05
1.13813e-08
1.6771e-08
-1.73038e-05
1.73132e-05
1.00777e-08
-1.85713e-05
1.85645e-05
2.0649e-08
2.91851e-09
-8.83509e-09
-1.11355e-08
-1.16902e-08
-1.89879e-08
-6.18616e-09
-2.84029e-08
1.12271e-08
-4.06484e-08
1.21424e-08
-5.5701e-08
-8.3312e-10
-8.34904e-08
-1.14605e-07
-1.63365e-08
2.31582e-09
-3.97267e-06
3.97551e-06
6.46862e-09
-6.1787e-06
6.17846e-06
1.48376e-08
-8.56911e-06
8.56346e-06
3.16841e-08
-1.1459e-05
1.14428e-05
3.57709e-08
-1.47586e-05
1.47497e-05
1.83476e-08
-1.73891e-05
1.74028e-05
-1.86692e-05
1.86728e-05
5.96182e-09
-6.78828e-09
-3.97717e-09
-8.5998e-09
-9.46455e-09
-3.11632e-09
-1.6512e-08
1.36265e-08
-2.56832e-08
1.80969e-08
-3.82952e-08
5.7411e-09
-6.34937e-08
-9.36829e-08
-5.31064e-09
4.07018e-10
-3.96956e-06
3.97691e-06
-7.74669e-09
3.8213e-09
-6.16853e-06
6.17305e-06
-7.92531e-09
1.11655e-08
-8.54781e-06
8.54762e-06
-7.15454e-09
2.66788e-08
-1.14188e-05
1.14087e-05
-5.36325e-09
3.48241e-08
-1.47381e-05
1.47307e-05
-7.71335e-10
1.97714e-08
-1.7429e-05
1.74446e-05
-5.65582e-10
-1.87184e-05
1.87288e-05
8.77417e-09
5.85252e-10
-1.15195e-09
7.10788e-09
1.11664e-09
7.66622e-09
9.00282e-09
7.76413e-09
2.59506e-08
7.03864e-09
3.35503e-08
3.97262e-09
2.0121e-08
-1.27785e-08
-3.14553e-08
5.98635e-09
-4.26508e-09
-3.9628e-06
3.97173e-06
-4.6596e-09
-6.1503e-06
6.15673e-06
-1.18349e-09
-8.51473e-06
8.51755e-06
9.3494e-09
-1.13624e-05
1.13573e-05
1.53772e-08
-1.46856e-05
1.46809e-05
-8.04089e-09
-1.74316e-05
1.74542e-05
-1.87254e-05
1.87475e-05
-4.26804e-08
2.07063e-09
1.20467e-08
6.59517e-09
1.82255e-08
1.54411e-08
2.40514e-08
3.18112e-08
2.98743e-08
4.17171e-08
3.52585e-08
2.63591e-08
2.84199e-08
1.48758e-08
1.48665e-08
-8.87543e-09
-3.96467e-06
3.97324e-06
3.14137e-10
-1.43164e-08
-6.1397e-06
6.1458e-06
-6.50947e-10
-1.60463e-08
-8.49011e-06
8.49278e-06
-9.39425e-10
-1.11804e-08
-1.13151e-05
1.13105e-05
-2.54254e-10
-7.00106e-09
-1.46334e-05
1.46263e-05
2.86887e-09
-2.51461e-08
-1.74377e-05
1.74517e-05
4.18032e-09
-1.87453e-05
1.87524e-05
2.17778e-08
-5.40347e-08
-2.87472e-09
9.93428e-09
-3.8482e-09
1.80029e-08
-1.49873e-09
2.50993e-08
7.24368e-09
3.34873e-08
1.26246e-08
4.21737e-08
-8.7959e-09
3.78987e-08
2.71187e-08
-3.37693e-08
-1.67153e-08
-3.95764e-06
3.97209e-06
-3.20444e-08
-6.11261e-06
6.12651e-06
-4.40771e-08
-8.44097e-06
8.45219e-06
-4.8734e-08
-1.12343e-05
1.12382e-05
-4.86389e-08
-1.45289e-05
1.45254e-05
-6.34063e-08
-1.73774e-05
1.7387e-05
-1.86975e-05
1.86949e-05
-7.61008e-08
-9.67358e-10
1.65813e-08
-4.91432e-10
3.27101e-08
1.06685e-09
5.02627e-08
7.3176e-09
6.9908e-08
1.12114e-08
9.35219e-08
-1.21204e-08
9.75943e-08
7.29464e-08
-3.0091e-08
-3.08159e-08
-3.86884e-06
3.90369e-06
-4.03442e-09
-5.7171e-08
-5.97828e-06
6.01136e-06
-6.71806e-09
-7.84238e-08
-8.25051e-06
8.2809e-06
-9.13366e-09
-8.79755e-08
-1.09702e-05
1.09915e-05
-1.17494e-08
-8.30895e-08
-1.41839e-05
1.41916e-05
-1.25058e-08
-8.17811e-08
-1.70184e-05
1.70324e-05
-1.53255e-08
-1.83327e-05
1.83341e-05
-8.82875e-09
-7.43307e-08
2.30385e-08
8.0214e-08
3.6985e-08
1.34282e-07
4.63553e-08
1.92308e-07
5.44545e-08
2.59862e-07
5.74045e-08
3.38514e-07
3.3643e-08
3.92372e-07
3.90141e-07
5.75286e-09
-5.22293e-08
-3.67764e-06
3.73171e-06
-9.51908e-08
-5.68954e-06
5.7403e-06
-1.31051e-07
-7.85026e-06
7.90058e-06
-1.53679e-07
-1.04299e-05
1.04765e-05
-1.5632e-07
-1.34783e-05
1.35133e-05
-1.56046e-07
-1.62201e-05
1.62653e-05
-1.74766e-05
1.7502e-05
-1.26002e-07
5.93445e-08
1.66717e-07
9.86487e-08
2.82514e-07
1.23144e-07
4.06147e-07
1.37926e-07
5.46885e-07
1.35e-07
7.16217e-07
9.21555e-08
8.55152e-07
9.03522e-07
4.61298e-08
-6.02039e-08
-3.48942e-06
3.45305e-06
9.65752e-08
-1.11524e-07
-5.39457e-06
5.36474e-06
8.11554e-08
-1.63181e-07
-7.44034e-06
7.41291e-06
7.90895e-08
-2.16712e-07
-9.8757e-06
9.8572e-06
7.20382e-08
-2.64853e-07
-1.275e-05
1.27434e-05
5.46876e-08
-2.98807e-07
-1.5389e-05
1.54043e-05
1.85812e-08
-1.65865e-05
1.66096e-05
-1.33107e-08
-3.08503e-07
5.33754e-08
1.8891e-07
8.57578e-08
3.13346e-07
9.53669e-08
4.50633e-07
8.86766e-08
6.0753e-07
6.11466e-08
7.90911e-07
-4.29582e-09
9.41756e-07
9.81073e-07
-6.98729e-08
8.72918e-09
4.01077e-06
-4.2439e-06
-1.43391e-08
6.17749e-06
-6.40026e-06
-1.11306e-07
8.60557e-06
-8.76434e-06
-2.89875e-07
1.14947e-05
-1.15797e-05
-5.02428e-07
1.48345e-05
-1.48779e-05
-6.75276e-07
1.78549e-05
-1.79103e-05
1.92158e-05
-1.92895e-05
-8.20323e-07
-1.67188e-06
-2.06312e-06
-2.98051e-06
-3.27671e-06
-4.06789e-06
-4.55266e-06
-4.88371e-06
-6.08515e-06
-5.20497e-06
-7.9142e-06
-4.81468e-06
-9.68677e-06
-1.06377e-05
-3.71959e-06
-2.33652e-07
-5.57198e-07
-4.12075e-07
-8.571e-07
-5.82435e-07
-1.18107e-06
-7.38454e-07
-1.56649e-06
-8.40205e-07
-2.03278e-06
-8.43291e-07
-2.50286e-06
-2.78729e-06
-7.35926e-07
7.08442e-07
2.43461e-06
3.37064e-06
1.06997e-06
3.25761e-06
4.56769e-06
1.4199e-06
4.02984e-06
5.78846e-06
1.60351e-06
5.01394e-06
7.21887e-06
1.60776e-06
6.00643e-06
8.7746e-06
1.34611e-06
6.98754e-06
1.02036e-05
7.56571e-06
1.10383e-05
8.77801e-07
7.82049e-07
2.81723e-06
2.91447e-06
1.23196e-06
3.80494e-06
3.93191e-06
1.5432e-06
4.85192e-06
5.00502e-06