/*--------------------------------*- C++ -*----------------------------------*\
  =========                 |
  \\      /  F ield         | OpenFOAM: The Open Source CFD Toolbox
   \\    /   O peration     | Website:  https://openfoam.org
    \\  /    A nd           | Version:  12
     \\/     M anipulation  |
\*---------------------------------------------------------------------------*/
FoamFile
{
    format      ascii;
    class       volVectorField;
    location    "11500";
    object      U;
}
// * * * * * * * * * * * * * * * * * * * * * * * * * * * * * * * * * * * * * //

dimensions      [0 1 -1 0 0 0 0];

internalField   nonuniform List<vector> 
24749
(
(-0.00335217 4.76693 -0.0665631)
(-0.0186288 4.87781 -0.0295681)
(-0.0299927 4.93492 -0.0324578)
(-0.0339054 4.96242 -0.016)
(-0.0336436 4.98246 -0.00642127)
(-0.0322874 4.99374 -1.74948e-05)
(-0.0281053 4.99938 0.00352193)
(-0.0134506 4.10365 0.709693)
(0.0466005 4.74919 0.315013)
(0.0768402 4.94237 0.183952)
(0.10619 5.01202 0.136393)
(0.114513 5.07912 0.0726678)
(0.123537 5.11817 0.0264164)
(0.10897 5.1081 -0.000829829)
(-0.0347703 3.94615 0.197759)
(-0.0061837 4.74417 0.180662)
(0.0386801 4.99747 0.0242051)
(0.0472864 5.04291 -0.0203478)
(0.0445219 5.07698 -0.0379752)
(0.0319674 5.10896 -0.0224336)
(0.0326465 5.11227 -0.00158675)
(-0.0180007 3.7066 0.082521)
(-0.00758032 4.64666 0.0796859)
(0.0165385 5.01314 0.00222464)
(0.0186342 5.09935 -0.0273255)
(0.0149663 5.13543 -0.0148557)
(0.00968913 5.16351 -0.00237754)
(0.0138783 5.1609 -0.00147463)
(-0.00843383 3.53098 0.0349799)
(-0.00553556 4.52479 0.0387516)
(0.00525564 4.99001 -0.00224093)
(0.00631221 5.13437 -0.0212015)
(0.00338251 5.17574 -0.00726845)
(0.00383842 5.20289 -0.000545395)
(0.00841773 5.19945 -0.0044656)
(-0.00375368 3.41587 0.0183051)
(-0.00396308 4.40301 0.0219141)
(0.000243673 4.93532 0.000195753)
(0.000891744 5.15232 -0.0132398)
(-0.0013483 5.20633 -0.00114434)
(0.00264394 5.23386 0.00192919)
(0.00526564 5.23114 -0.0037723)
(-0.00155481 3.34787 0.00990789)
(-0.00199819 4.29867 0.011895)
(-0.00159077 4.86014 0.00134521)
(-0.0018309 5.15686 -0.00786559)
(-0.00320672 5.23313 0.00164148)
(0.000795823 5.26153 0.0022245)
(0.00386604 5.25959 -0.00112358)
(-0.000495635 3.30695 0.0045636)
(-0.000760852 4.21584 0.00583197)
(-0.00179749 4.77749 0.000889925)
(-0.00330211 5.14688 -0.00486845)
(-0.00427241 5.25713 0.00220109)
(0.000297902 5.28828 0.00150222)
(0.00176382 5.28617 -0.00104301)
(-0.000271111 3.28015 0.00186963)
(-0.000373134 4.15264 0.00278179)
(-0.00150016 4.69802 0.000678905)
(-0.00390251 5.1211 -0.00292667)
(-0.00483361 5.27687 0.00223963)
(-0.000120542 5.31302 0.00104708)
(0.000978462 5.31132 -0.00177518)
(-0.000534334 3.26471 0.00220261)
(-0.000264907 4.10607 0.00237005)
(-0.00124991 4.63162 0.00128757)
(-0.00373536 5.08282 -0.000595291)
(-0.00521055 5.29287 0.00212674)
(-5.37895e-05 5.33831 0.000767634)
(-2.76419e-05 5.33659 -0.00191238)
(1.77618e-05 3.24797 0.00173505)
(-8.7638e-05 4.06564 0.00209938)
(-0.00061697 4.57403 0.00157369)
(-0.00290633 5.03238 0.000135628)
(-0.00455191 5.29949 0.00236358)
(-0.000217569 5.35998 0.000212996)
(0.000903152 5.35925 -0.00122228)
(-0.000130436 3.23982 0.00110153)
(-0.000248158 4.03629 0.00123697)
(-0.000571115 4.52884 0.00103939)
(-0.00268132 4.98068 0.000191338)
(-0.00486045 5.30058 0.00147987)
(-0.0012557 5.38254 -0.000691678)
(0.00109115 5.38336 -0.00106303)
(-0.00088753 3.23327 0.00582803)
(-0.00098669 4.01356 0.00543908)
(-0.00107493 4.49196 0.00487994)
(-0.00240873 4.93091 0.00388862)
(-0.00461391 5.29372 0.00430404)
(-0.00172087 5.40363 0.00174665)
(7.72696e-05 5.40646 0.00132928)
(0.00082042 3.22228 -0.00149599)
(0.000542436 3.99115 8.80639e-05)
(0.000185835 4.45786 0.00108833)
(-0.00082985 4.88292 0.00169326)
(-0.00334355 5.27691 0.00269195)
(-0.000965933 5.42116 0.00104678)
(0.0011704 5.42841 0.000855789)
(0.00053453 3.22159 -0.00332795)
(0.000630924 3.97781 -0.00239837)
(0.000451262 4.43349 -0.00119406)
(-0.000214922 4.845 -8.79352e-05)
(-0.00252332 5.2557 0.0011932)
(-0.000752471 5.43872 0.000698266)
(0.00288959 5.45046 0.00279285)
(-0.000546824 3.24228 0.00163029)
(0.000695989 3.9871 0.00132265)
(0.00157537 4.43254 0.0011416)
(0.00235461 4.83103 0.00130408)
(0.0018254 5.24513 0.00175945)
(0.00423143 5.46602 0.000756291)
(0.00506245 5.48485 0.00155413)
(0.0022788 3.26376 -0.00165385)
(0.00310799 4.0012 -0.0036061)
(0.00366412 4.44197 -0.00477851)
(0.00631161 4.83198 -0.00601328)
(0.00661818 5.24325 -0.00627793)
(0.0110204 5.50187 -0.00693168)
(0.0158852 5.52904 -0.00606155)
(-0.0140267 3.65597 0.165814)
(-0.0071688 4.30519 0.132918)
(0.0116422 4.72009 0.109908)
(0.042841 5.08595 0.0899223)
(0.070322 5.46099 0.0707805)
(0.108226 5.70384 0.0543459)
(0.150926 5.71461 0.0493094)
(0.06845 3.88143 -0.111431)
(0.0903892 4.6418 -0.0634371)
(0.125113 5.08039 -0.0623968)
(0.194175 5.44878 -0.0514346)
(0.277452 5.80389 -0.0287632)
(0.364336 6.00372 -0.00233672)
(0.349068 5.91975 0.00109522)
(0.0950339 3.7581 0.029937)
(0.122216 4.45283 0.0295514)
(0.126668 4.8581 0.0350695)
(0.124929 5.21065 0.0440904)
(0.150055 5.57283 0.0440304)
(0.184502 5.81141 0.0373109)
(0.222543 5.79426 0.0150523)
(-0.108455 4.74509 -0.14882)
(-0.105803 5.16936 -0.15379)
(0.0027052 5.50891 -0.136885)
(0.161581 5.79841 -0.119954)
(0.287859 6.06165 -0.102658)
(0.425921 6.16016 -0.0769068)
(0.453709 6.03419 -0.052651)
(0.061578 4.63087 -0.278156)
(0.165614 5.10686 -0.0656601)
(0.267361 5.47145 -0.0542169)
(0.359225 5.78687 -0.0439639)
(0.474723 6.05252 -0.0362656)
(0.593146 6.15541 -0.0400827)
(0.590583 6.00626 -0.0203394)
(0.244189 4.02123 0.62983)
(0.274996 4.73419 0.487643)
(0.302306 5.12899 0.42547)
(0.344879 5.47895 0.312039)
(0.397717 5.80713 0.186112)
(0.452335 6.00741 0.0535904)
(0.398504 5.8982 0.014316)
(0.43145 3.2726 0.349826)
(0.449627 4.10041 0.336618)
(0.429352 4.55946 0.279432)
(0.425284 4.95465 0.213876)
(0.425883 5.33778 0.13897)
(0.425325 5.62159 0.0766016)
(0.39431 5.71591 0.0692774)
(0.420931 3.48704 0.0925664)
(0.452623 4.25068 0.0452191)
(0.435481 4.68523 0.0546267)
(0.422699 5.06019 0.0605489)
(0.397403 5.4424 0.0459485)
(0.381591 5.71651 0.0188983)
(0.325218 5.76554 0.0679031)
(0.500453 2.4959 0.0930072)
(0.439972 3.52896 0.113034)
(0.414428 4.04604 0.132995)
(0.404418 4.47717 0.105523)
(0.401686 4.904 0.106012)
(0.403599 5.27547 0.0967209)
(0.411987 5.47313 0.0970415)
(0.420977 2.83281 -0.0437042)
(0.409424 3.7823 -0.0837275)
(0.384155 4.28155 -0.0594096)
(0.374676 4.68857 -0.0230447)
(0.371364 5.09069 0.00729419)
(0.369241 5.43273 0.0425254)
(0.364941 5.58984 0.0551527)
(0.44927 1.7984 -0.109193)
(0.329998 2.99922 -0.0475507)
(0.336207 3.5872 -0.00067926)
(0.353804 4.05335 0.0210723)
(0.366108 4.5168 0.0415439)
(0.408761 4.96055 0.0785145)
(0.44316 5.28318 0.102965)
(0.24546 2.16821 -0.15348)
(0.264026 3.30033 -0.171901)
(0.259213 3.85965 -0.137264)
(0.273582 4.29977 -0.0919074)
(0.29663 4.73992 -0.0450521)
(0.328 5.14786 0.000842012)
(0.350867 5.41478 0.0242171)
(0.239984 1.40432 -0.143926)
(0.208023 2.70001 -0.103406)
(0.290497 3.34138 -0.0764907)
(0.291088 3.82955 -0.0377536)
(0.323531 4.30373 -0.00526158)
(0.406925 4.77305 0.0342276)
(0.435079 5.13808 0.0480166)
(0.0982953 1.71063 -0.186186)
(0.117439 2.929 -0.170053)
(0.135227 3.54307 -0.136357)
(0.178723 4.00872 -0.0922782)
(0.228231 4.4673 -0.0494343)
(0.294521 4.92159 -0.00647782)
(0.329515 5.27369 0.0189506)
(0.153228 1.33495 -0.0221072)
(0.143908 2.63122 -0.0289158)
(0.18727 3.27894 -0.0215756)
(0.252295 3.77222 -0.0139137)
(0.265896 4.24871 -0.012444)
(0.342963 4.72173 -0.00172464)
(0.405157 5.09699 -0.0298073)
(0.00470516 1.57084 -0.101045)
(0.00972421 2.80301 -0.112815)
(0.0423561 3.44674 -0.0901618)
(0.0986193 3.92229 -0.0620174)
(0.162443 4.38015 -0.0396268)
(0.255437 4.83411 -0.00327213)
(0.287147 5.19337 -0.0132562)
(0.208851 1.52745 0.0959779)
(0.210092 2.76492 0.0641649)
(0.223514 3.3724 0.0371652)
(0.290703 3.84829 0.0220106)
(0.288133 4.31711 0.00895102)
(0.346939 4.78343 -0.0211423)
(0.437065 5.13874 -0.0646203)
(-0.0130703 1.57877 0.0443278)
(-0.00973733 2.79522 0.0469279)
(0.0291844 3.42657 0.0369353)
(0.085107 3.9012 0.0321955)
(0.156129 4.36082 0.0245839)
(0.235057 4.81654 0.01449)
(0.313183 5.17954 0.000789145)
(0.453794 1.91876 0.113368)
(0.340254 3.07617 0.0659405)
(0.339297 3.63669 0.0330586)
(0.33375 4.08996 0.0150648)
(0.331222 4.5396 0.00390667)
(0.358973 4.97074 -0.037745)
(0.37353 5.27223 -0.0359797)
(0.0654677 1.78921 0.161459)
(0.0783017 2.98154 0.1609)
(0.0951535 3.5717 0.139494)
(0.137155 4.02664 0.10327)
(0.186226 4.47606 0.0744739)
(0.248404 4.91793 0.0253807)
(0.288347 5.24625 0.0148307)
(0.587551 2.52164 -0.0764011)
(0.47546 3.52892 -0.111825)
(0.441016 4.03806 -0.126664)
(0.416065 4.46124 -0.106098)
(0.402953 4.87856 -0.108676)
(0.402649 5.25307 -0.0836811)
(0.408866 5.45353 -0.1499)
(0.30787 2.17574 0.203352)
(0.319315 3.30614 0.21067)
(0.292383 3.86311 0.173305)
(0.283736 4.29639 0.115252)
(0.283308 4.72317 0.0633994)
(0.3017 5.12313 0.0176511)
(0.301287 5.37909 0.0124742)
(0.354716 3.35859 -0.299556)
(0.3978 4.16481 -0.299723)
(0.424016 4.58771 -0.272024)
(0.428569 4.95045 -0.212382)
(0.424529 5.31265 -0.144817)
(0.421886 5.59044 -0.0809244)
(0.400169 5.66068 -0.103797)
(0.431417 2.75459 0.0316738)
(0.461847 3.71209 0.077371)
(0.417448 4.21877 0.0497334)
(0.402163 4.63051 0.0194157)
(0.386423 5.03535 -0.0109539)
(0.376679 5.39257 -0.0314063)
(0.366754 5.56866 -0.0685233)
(0.135671 4.35924 -0.435444)
(0.18797 4.82355 -0.371555)
(0.248238 5.15875 -0.307963)
(0.323153 5.46204 -0.216414)
(0.389992 5.75222 -0.139718)
(0.451897 5.91635 -0.0583114)
(0.49181 5.84607 0.00312184)
(0.25574 3.86328 -0.177049)
(0.316259 4.59369 -0.15887)
(0.297878 4.98743 -0.142231)
(0.296103 5.32057 -0.116573)
(0.308742 5.65905 -0.0943291)
(0.374114 5.90148 -0.057725)
(0.39771 5.84263 -0.0717548)
(0.396066 3.30312 -0.101147)
(0.445775 4.14804 -0.0697332)
(0.43962 4.58885 -0.079218)
(0.433883 4.96774 -0.0869786)
(0.426871 5.35586 -0.0688787)
(0.402275 5.63776 -0.0373299)
(0.397434 5.68757 -0.0389547)
(0.313287 4.10632 0.343998)
(0.550655 4.73038 0.26776)
(0.463559 5.1182 0.216674)
(0.466484 5.46035 0.18072)
(0.420605 5.77933 0.130376)
(0.419007 5.96293 0.0653721)
(0.352871 5.88695 0.0418625)
(-0.00302491 4.76551 0.0718817)
(-0.0183306 4.87765 0.032799)
(-0.029959 4.9346 0.0380276)
(-0.0342011 4.96194 0.0197392)
(-0.0341401 4.98202 0.0102301)
(-0.0326011 4.99341 0.00322146)
(-0.0288948 4.99893 -0.000329434)
(-0.0147772 4.09575 -0.705528)
(0.0449598 4.74357 -0.311534)
(0.0753233 4.94087 -0.183248)
(0.105812 5.01097 -0.139506)
(0.115035 5.07911 -0.0743057)
(0.124601 5.11914 -0.0269081)
(0.112738 5.10931 -0.00304608)
(-0.0820352 4.15286 -0.379785)
(-0.0107533 4.8154 -0.268719)
(0.0711027 5.00929 -0.0889318)
(0.0866239 5.02261 -0.0175237)
(0.0950069 5.04918 0.0382036)
(0.0785165 5.07245 0.0695417)
(0.0282187 5.06154 0.0479157)
(-0.196473 4.08816 -0.641254)
(-0.208004 4.7023 -0.378699)
(-0.143154 4.90658 -0.156973)
(-0.0941672 4.94116 -0.0591593)
(-0.0439661 4.98535 0.0240688)
(0.00545591 5.02661 0.0613429)
(0.0246933 5.03904 0.0797121)
(-0.0412582 3.9467 -0.213555)
(-0.0108528 4.74497 -0.190087)
(0.034031 4.99928 -0.032755)
(0.0428208 5.04405 0.0122678)
(0.0382257 5.07808 0.0310251)
(0.0301893 5.11096 0.0196898)
(0.0120554 5.11258 0.0077271)
(-0.0721077 3.97882 -0.320749)
(-0.0752685 4.72591 -0.206647)
(-0.0444581 4.98725 -0.0391194)
(-0.0260815 5.0388 0.0211187)
(0.00716943 5.07965 0.0560169)
(0.036981 5.11716 0.0444794)
(0.0154121 5.12036 0.026573)
(-0.0264914 3.81521 -0.133818)
(-0.010454 4.6975 -0.139233)
(0.0238807 5.01196 -0.0114151)
(0.0303996 5.07422 0.0285772)
(0.0230508 5.10908 0.027638)
(0.0193949 5.13836 0.0142627)
(0.0142111 5.13691 0.0244792)
(-0.0505324 3.83349 -0.210817)
(-0.0604952 4.67138 -0.143054)
(-0.0371067 4.99315 -0.0111814)
(-0.01889 5.05892 0.0264667)
(-0.00107946 5.09663 0.0390641)
(0.0169009 5.12455 0.0199988)
(0.0112136 5.12068 0.0203115)
(-0.0212542 3.70563 -0.0933243)
(-0.0113729 4.64547 -0.0980518)
(0.012351 5.0147 -0.00784529)
(0.0155055 5.10147 0.0170785)
(0.00880687 5.13761 0.0174835)
(0.00867215 5.16553 0.00522871)
(0.00827412 5.16228 0.0156349)
(-0.0426569 3.72554 -0.146505)
(-0.0519271 4.62851 -0.111332)
(-0.0319425 5.00264 -0.00385752)
(-0.0160305 5.09246 0.0280713)
(-0.00617942 5.13135 0.0245119)
(0.00732447 5.15889 0.0102704)
(0.00818392 5.1551 0.0218411)
(-0.0170074 3.60932 -0.0698537)
(-0.0110906 4.58512 -0.0741134)
(0.00546734 5.00651 -0.00863424)
(0.00753778 5.12138 0.0131104)
(0.00096837 5.15938 0.010524)
(0.00404208 5.18684 0.000282513)
(0.00456932 5.18383 0.00964897)
(-0.0328126 3.62516 -0.104514)
(-0.0394463 4.57264 -0.0875595)
(-0.025849 4.99577 -0.00384318)
(-0.014268 5.11352 0.0230479)
(-0.0084369 5.15407 0.0147034)
(0.00192879 5.1807 0.0025593)
(-0.000152224 5.17802 0.0169144)
(-0.0123621 3.52613 -0.0528538)
(-0.00948005 4.52096 -0.0540792)
(0.00137424 4.9888 -0.0093698)
(0.00306876 5.13537 0.0103739)
(-0.00237476 5.17713 0.00589984)
(0.00141401 5.20437 -0.00206936)
(0.00129869 5.20091 0.00735303)
(-0.0226439 3.53852 -0.0752494)
(-0.0284344 4.51173 -0.0706315)
(-0.0201272 4.97852 -0.00494079)
(-0.0118751 5.12916 0.0187481)
(-0.00863098 5.17322 0.00833928)
(-0.000736169 5.19904 -0.00236056)
(0.000126797 5.19703 0.0126878)
(-0.00807581 3.45936 -0.0372489)
(-0.00744954 4.45729 -0.0392393)
(-0.000915924 4.9634 -0.00852944)
(0.000534834 5.14552 0.00930884)
(-0.00374157 5.1929 0.00445705)
(0.00098687 5.22039 -0.00163085)
(0.00131575 5.21717 0.00730727)
(-0.0147533 3.46577 -0.0527603)
(-0.0203175 4.44829 -0.0541434)
(-0.0159806 4.95132 -0.0053763)
(-0.0102965 5.13918 0.0159552)
(-0.00800253 5.18883 0.00518859)
(-0.00094377 5.21484 -0.00276358)
(-0.000633766 5.21262 0.0101551)
(-0.00562833 3.40745 -0.0278224)
(-0.00612625 4.39688 -0.0301048)
(-0.00259054 4.93096 -0.00837823)
(-0.00153772 5.15191 0.00756999)
(-0.00497816 5.20725 0.00305445)
(0.000749083 5.23502 -0.00176995)
(0.00159708 5.23233 0.00579805)
(-0.0102643 3.41041 -0.0378835)
(-0.0153482 4.38886 -0.0410877)
(-0.0136922 4.92025 -0.00610068)
(-0.00977976 5.14633 0.012934)
(-0.00803939 5.20395 0.00314524)
(-0.00130042 5.23037 -0.00279585)
(-0.00162008 5.22845 0.00993091)
(-0.00409569 3.36847 -0.0205804)
(-0.00499752 4.34153 -0.0230357)
(-0.00373955 4.89375 -0.00812945)
(-0.00321964 5.15508 0.00618414)
(-0.00582182 5.2209 0.00232591)
(-7.80791e-05 5.24921 -0.00121606)
(-0.000378955 5.2469 0.00573588)
(-0.00782155 3.36862 -0.0280218)
(-0.0119529 4.33369 -0.031611)
(-0.012125 4.88411 -0.00704287)
(-0.00952173 5.14952 0.010174)
(-0.00802658 5.21747 0.00142693)
(-0.00175603 5.24459 -0.00258343)
(-0.000189635 5.24322 0.00818727)
(-0.00297529 3.33903 -0.0155711)
(-0.00380715 4.29146 -0.0175838)
(-0.00418478 4.85333 -0.00740942)
(-0.0041935 5.15462 0.005231)
(-0.00590576 5.23368 0.00209205)
(-0.000869747 5.26243 -0.000489967)
(0.000799327 5.2603 0.00575104)
(-0.00588726 3.33757 -0.0205927)
(-0.00951133 4.28373 -0.0240334)
(-0.0107271 4.84463 -0.00699832)
(-0.00957214 5.14906 0.00848519)
(-0.00819901 5.23011 0.00100622)
(-0.00220225 5.25826 -0.00159608)
(0.000353422 5.25727 0.00744674)
(-0.00247514 3.31633 -0.0130174)
(-0.00304772 4.24703 -0.0144363)
(-0.00423868 4.81136 -0.00730018)
(-0.00482328 5.1506 0.00374244)
(-0.0058141 5.24618 0.00142743)
(-0.0001942 5.27594 -0.00041683)
(9.58119e-05 5.27389 0.00543488)
(-0.00474529 3.31435 -0.0161368)
(-0.00747519 4.2395 -0.0190829)
(-0.00952754 4.80366 -0.00728974)
(-0.00919674 5.14487 0.00633449)
(-0.00758385 5.24215 0.000317413)
(-0.00171139 5.2716 -0.00121504)
(-0.000242199 5.2702 0.00714602)
(-0.00214245 3.2979 -0.0106105)
(-0.00264726 4.20794 -0.0120049)
(-0.00439363 4.76899 -0.00711694)
(-0.00561854 5.14258 0.00267177)
(-0.00672967 5.25746 0.000692189)
(-0.0013987 5.28934 -0.000697583)
(-5.05533e-05 5.28763 0.00368796)
(-0.00404964 3.29632 -0.0133406)
(-0.00613295 4.20067 -0.0157261)
(-0.00876103 4.76238 -0.00762958)
(-0.00913202 5.13667 0.00418653)
(-0.00805772 5.25361 -0.000467664)
(-0.00233638 5.28498 -0.00155499)
(-0.000334393 5.28465 0.00551174)
(-0.00164596 3.2831 -0.00850432)
(-0.00207509 4.17396 -0.00948385)
(-0.00384934 4.72748 -0.00632137)
(-0.0056381 5.1303 0.00170885)
(-0.00636647 5.26764 0.000440887)
(-0.00146942 5.30136 -0.000741507)
(-7.13958e-05 5.29949 0.00318642)
(-0.00336196 3.28104 -0.0103528)
(-0.00506402 4.16609 -0.0124601)
(-0.00796562 4.72106 -0.00713588)
(-0.00888547 5.12322 0.00303927)
(-0.00825576 5.26329 -0.000529122)
(-0.00358789 5.29699 -0.000747367)
(-0.000360356 5.29664 0.00497916)
(-0.00148894 3.27173 -0.00739245)
(-0.00191072 4.14464 -0.00822371)
(-0.00347794 4.68888 -0.00605163)
(-0.00575247 5.11466 0.000604685)
(-0.00640639 5.27695 -4.03579e-05)
(-0.00152168 5.31457 -0.000165383)
(6.4461e-05 5.31248 0.00341751)
(-0.00312549 3.26981 -0.00908862)
(-0.00449664 4.13699 -0.0108802)
(-0.00697852 4.68263 -0.00714645)
(-0.00853125 5.10681 0.00137962)
(-0.00795175 5.27269 -0.00111775)
(-0.00319756 5.30957 -0.000893029)
(-0.000502258 5.30932 0.00385627)
(-0.00136073 3.26226 -0.00625672)
(-0.00169834 4.11876 -0.0074458)
(-0.00307156 4.65319 -0.00595626)
(-0.00549363 5.09504 -0.000547274)
(-0.00620749 5.28449 -0.000892049)
(-0.00134771 5.32626 -0.00173447)
(-0.000736959 5.32423 0.000516545)
(-0.0029946 3.26044 -0.00836084)
(-0.00393741 4.11131 -0.00987873)
(-0.00608805 4.647 -0.00733165)
(-0.00809397 5.08752 -0.00027117)
(-0.00800929 5.28045 -0.00180681)
(-0.0035451 5.32153 -0.00159733)
(-0.00055069 5.32168 0.00299429)
(-0.000818934 3.25466 -0.00407336)
(-0.00121254 4.09627 -0.00558014)
(-0.00239847 4.62106 -0.00459438)
(-0.00492686 5.07304 -0.000393349)
(-0.00597224 5.2909 -0.00039641)
(-0.00116586 5.33903 -0.000494951)
(-0.000725292 5.33714 0.00119144)
(-0.00216325 3.25263 -0.00666327)
(-0.00289299 4.08854 -0.00805984)
(-0.00469283 4.61433 -0.00671927)
(-0.00694676 5.06528 -0.000867298)
(-0.00725815 5.28665 -0.00210969)
(-0.0027181 5.33365 -0.00147562)
(-0.000975137 5.33362 0.00152662)
(-0.000484611 3.24756 -0.0034944)
(-0.000936217 4.07587 -0.00438597)
(-0.00183177 4.59153 -0.00375106)
(-0.0044224 5.0483 -0.000555882)
(-0.00588606 5.29488 -0.000112259)
(-0.00144281 5.35019 -0.00036899)
(-0.000838668 5.3487 0.00187413)
(-0.00129805 3.24593 -0.00485424)
(-0.00206139 4.06867 -0.00621748)
(-0.00359926 4.58494 -0.00533479)
(-0.00607152 5.04114 -0.000761517)
(-0.00709416 5.29113 -0.00131165)
(-0.00244771 5.34526 -0.000422705)
(-0.00154683 5.346 0.00259055)
(-0.000650679 3.24162 -0.00504099)
(-0.000946254 4.05778 -0.00482854)
(-0.00154665 4.56497 -0.00417778)
(-0.00382984 5.02224 -0.00147211)
(-0.00544952 5.29712 -0.000579739)
(-0.000764589 5.36158 -0.000618858)
(-0.00119678 5.36022 0.00241103)
(-0.000889304 3.23967 -0.00450679)
(-0.00122473 4.05082 -0.00583381)
(-0.00256795 4.55819 -0.00504652)
(-0.0050031 5.01528 -0.00152691)
(-0.00641838 5.29328 -0.0013024)
(-0.0015936 5.35616 -0.000313572)
(-0.00162272 5.35693 0.00302864)
(-0.000718344 3.23585 -0.00501645)
(-0.000926266 4.0417 -0.00521306)
(-0.00146378 4.54091 -0.00460759)
(-0.00344309 4.9957 -0.0025011)
(-0.00535078 5.29741 -0.00141675)
(-0.000789343 5.3725 -0.00148753)
(-2.05637e-05 5.37218 0.000946211)
(-1.00222e-05 3.23466 -0.00539619)
(-0.00112285 4.03549 -0.00647145)
(-0.00142351 4.53457 -0.0057599)
(-0.004198 4.98931 -0.00289581)
(-0.00604943 5.29386 -0.00209986)
(-0.00076316 5.36754 -0.000947875)
(-0.0018576 5.36924 0.00244545)
(-0.000139249 3.2306 -0.00243852)
(-0.00045344 4.02724 -0.00343783)
(-0.00100506 4.51891 -0.00331457)
(-0.00296477 4.9691 -0.00199731)
(-0.00519505 5.29577 -0.00101036)
(-0.00102175 5.38326 -0.000927779)
(-0.000730775 5.38405 0.00235092)
(0.000342058 3.22954 -0.00466432)
(-0.000845068 4.02109 -0.00583151)
(-0.00107517 4.51245 -0.00542826)
(-0.00377885 4.96271 -0.00334279)
(-0.0059137 5.29189 -0.00234846)
(-0.000747402 5.37819 -0.00128175)
(-0.00151616 5.38067 0.00259136)
(0.000452677 3.227 0.00148342)
(0.000190044 4.01468 1.82457e-05)
(-0.000495098 4.49911 -0.000518033)
(-0.00245482 4.94323 -6.57212e-05)
(-0.00524797 5.29219 0.000517796)
(-0.00167834 5.39334 -4.77119e-05)
(-0.00137851 5.39562 0.00242179)
(-0.000327284 3.22574 -0.00225386)
(-0.00120229 4.00837 -0.00359799)
(-0.00203753 4.49236 -0.0036902)
(-0.00397974 4.93671 -0.00235649)
(-0.00649025 5.28787 -0.0013038)
(-0.00197812 5.38857 -0.000387907)
(-0.0022236 5.39247 0.00324675)
(0.000313164 3.22481 0.00272325)
(0.000182877 4.00429 0.00156312)
(-0.000372451 4.48163 0.00100833)
(-0.00212747 4.91881 0.00124403)
(-0.00506863 5.28715 0.00196162)
(-0.00168963 5.40364 0.00183992)
(-0.000753485 5.40712 0.00558245)
(-0.00153521 3.22336 -0.000730841)
(-0.00234792 3.99807 -0.00179928)
(-0.00278542 4.47486 -0.00207508)
(-0.00421811 4.91224 -0.00123124)
(-0.00651844 5.28196 -0.000161176)
(-0.00241726 5.3985 0.000868821)
(-0.00136551 5.40317 0.00457869)
(-0.000497631 3.22264 -6.12689e-05)
(-0.000453737 3.99512 -0.000243968)
(-0.000977919 4.46585 -0.000221965)
(-0.00237496 4.89562 0.000368719)
(-0.00526622 5.28006 0.00148625)
(-0.00225418 5.41301 0.00183731)
(-0.00104849 5.4184 0.00452285)
(-0.00291027 3.22153 -0.00139821)
(-0.00331989 3.98968 -0.00189581)
(-0.0035725 4.45981 -0.00185568)
(-0.00465661 4.88982 -0.00103488)
(-0.0068931 5.27462 0.000276843)
(-0.00348917 5.40811 0.00162394)
(-0.00112062 5.41545 0.00492925)
(-0.00130357 3.22032 -0.00440955)
(-0.0010825 3.98662 -0.00359315)
(-0.00146836 4.45138 -0.0028357)
(-0.00251241 4.87399 -0.00172349)
(-0.00526647 5.2711 -0.000129965)
(-0.00287559 5.42197 0.000620794)
(-0.000541465 5.43015 0.00248006)
(-0.00312322 3.219 -0.00366577)
(-0.00304743 3.98166 -0.00366031)
(-0.00333414 4.44584 -0.00316936)
(-0.00421622 4.86861 -0.00209557)
(-0.00651381 5.26518 -0.000369266)
(-0.00378241 5.4173 0.00134602)
(-0.00165226 5.42691 0.00420981)
(-0.00145612 3.21738 -0.00649177)
(-0.00140723 3.97834 -0.0058223)
(-0.00168292 4.43776 -0.00470426)
(-0.0024606 4.85371 -0.0033328)
(-0.00495181 5.25996 -0.00153131)
(-0.00348825 5.42995 -0.000190586)
(-0.00215175 5.44109 0.00186629)
(-0.00240609 3.21634 -0.00593554)
(-0.00198384 3.97368 -0.00554479)
(-0.00245709 4.43258 -0.00471032)
(-0.00335831 4.84858 -0.00348154)
(-0.00589696 5.25424 -0.00157026)
(-0.00449697 5.42588 0.000606773)
(-0.00132223 5.43833 0.00222965)
(-0.000661039 3.21589 -0.00456204)
(-0.000631146 3.97153 -0.00491995)
(-0.000695229 4.42595 -0.00450691)
(-0.000954302 4.83557 -0.00358708)
(-0.00286238 5.24743 -0.00206168)
(-0.00129906 5.43731 -0.00106111)
(0.0025135 5.45056 -0.000252401)
(-0.000954037 3.21324 -0.00507442)
(-0.000276792 3.96536 -0.00537508)
(-0.00134431 4.41967 -0.00471553)
(-0.00205191 4.82936 -0.00359701)
(-0.00467578 5.24088 -0.00179316)
(-0.00384969 5.43278 0.000204905)
(-0.000351953 5.44787 0.000985395)
(0.000464579 3.22481 -0.000723151)
(0.000904639 3.97363 -0.00145651)
(0.00125932 4.42277 -0.00159309)
(0.00131059 4.8259 -0.0014197)
(1.09891e-05 5.24016 -0.000689395)
(0.00260679 5.45014 4.59232e-05)
(0.00448777 5.46757 0.00169815)
(0.00169282 3.21547 -0.00113528)
(0.00156624 3.96121 -0.00216795)
(0.00192971 4.41102 -0.00211305)
(0.00176674 4.81491 -0.00195864)
(-0.000471355 5.22948 -0.000955372)
(0.00145645 5.44272 0.000302223)
(0.00333682 5.45987 0.00100756)
(0.00152315 3.24486 -1.28751e-05)
(0.00252209 3.98524 -0.00040186)
(0.00385086 4.42883 -0.000664886)
(0.00516989 4.82524 -0.000745831)
(0.00513727 5.23841 0.000108981)
(0.0079733 5.46743 0.00158945)
(0.00897143 5.48706 0.00380628)
(0.00609078 3.22657 0.00579659)
(0.00729965 3.96605 0.00411681)
(0.0070111 4.41123 0.0030927)
(0.00763707 4.80906 0.00267622)
(0.00495264 5.22372 0.00316447)
(0.00681698 5.45644 0.0047562)
(0.0123627 5.47721 0.0070044)
(0.00128181 3.25815 -0.0144407)
(0.00203465 3.99711 -0.0125019)
(0.00456893 4.43734 -0.0104919)
(0.00768745 4.82834 -0.00870454)
(0.0082258 5.23902 -0.00614631)
(0.011209 5.48411 -0.00372442)
(0.0124995 5.5105 -0.000269425)
(0.0143492 3.24184 0.00453285)
(0.0185377 3.98104 0.0035202)
(0.0175515 4.42205 0.00226369)
(0.0175608 4.81384 0.00154634)
(0.0140517 5.22582 0.00195813)
(0.0155079 5.47538 0.00320195)
(0.0128644 5.50172 0.00610973)
(0.0058239 3.26309 -0.0122715)
(0.00571643 4.00387 -0.01073)
(0.0100171 4.44386 -0.0106959)
(0.014402 4.83206 -0.0108561)
(0.0173387 5.24019 -0.00962151)
(0.0205148 5.50235 -0.00909337)
(0.0224351 5.53117 -0.00859967)
(0.0298726 3.24715 0.0077016)
(0.0346466 3.9902 0.00376799)
(0.0314985 4.42934 0.00135208)
(0.0304853 4.81622 5.26357e-05)
(0.0245835 5.22439 6.33894e-05)
(0.0247202 5.48977 0.00142897)
(0.0226366 5.52197 0.00188169)
(0.022933 3.24181 0.0762465)
(0.0188165 4.00092 0.047898)
(0.0213152 4.45013 0.0353507)
(0.0256139 4.84408 0.0232258)
(0.0337834 5.25716 0.0109807)
(0.043309 5.54121 -0.000226134)
(0.0468106 5.57228 -0.00661948)
(0.0346098 3.26592 -0.00100774)
(0.0342408 4.01067 -0.00194213)
(0.0356702 4.44805 -0.00410267)
(0.0350754 4.83106 -0.00574092)
(0.0340148 5.23455 -0.00610532)
(0.0378866 5.51648 -0.00348498)
(0.040504 5.54728 0.00163534)
(0.0522872 3.33053 0.277094)
(0.0483745 4.0819 0.204454)
(0.0432233 4.54556 0.159805)
(0.0505666 4.95144 0.121146)
(0.0669906 5.36807 0.0830527)
(0.0905745 5.65327 0.0479272)
(0.123481 5.6859 0.0254552)
(-0.313036 3.939 0.143963)
(-0.343548 4.46652 0.160023)
(-0.270375 4.86227 0.114356)
(-0.171723 5.21817 0.0754705)
(-0.0542844 5.56403 0.0502072)
(0.057921 5.77322 0.0281942)
(0.170164 5.76297 0.00145294)
(-0.0258155 3.35922 0.0614968)
(-0.0606132 4.07422 0.0604365)
(-0.0394817 4.50803 0.04902)
(-0.0216751 4.89022 0.0372379)
(0.00161239 5.28915 0.0264957)
(0.0340302 5.57748 0.0164823)
(0.0609778 5.61313 0.00914516)
(0.149301 4.64745 -0.080692)
(0.200169 4.87463 -0.120512)
(0.141393 4.90896 -0.0846922)
(0.0879044 4.93885 -0.0550231)
(0.0443076 4.97175 -0.0296941)
(0.0111677 4.99208 -0.00852822)
(-0.00663172 5.00116 0.00341862)
(-0.0123648 4.61987 -0.174834)
(-0.0222865 4.84927 -0.234021)
(-0.016266 4.89868 -0.16229)
(-0.0115922 4.93307 -0.102434)
(-0.00770444 4.96397 -0.0560493)
(-0.00401353 4.98595 -0.0219144)
(-0.00048309 4.99744 -0.00333398)
(-0.160509 4.60967 -0.0822833)
(-0.218581 4.84251 -0.11294)
(-0.151566 4.89334 -0.0788651)
(-0.0962149 4.92994 -0.0501523)
(-0.0534552 4.9624 -0.0280613)
(-0.0222112 4.98512 -0.011929)
(-0.00489868 4.99682 -0.00313225)
(-0.155639 4.61468 0.0836046)
(-0.212288 4.84728 0.112503)
(-0.147714 4.89683 0.0784549)
(-0.0939373 4.93208 0.0497114)
(-0.0522155 4.96345 0.0274087)
(-0.0215982 4.98553 0.0110628)
(-0.00475771 4.997 0.0018522)
(-0.0162008 4.62185 0.172814)
(-0.0255836 4.85068 0.231567)
(-0.0181907 4.89952 0.161196)
(-0.0128971 4.93338 0.101942)
(-0.00845917 4.96394 0.0559086)
(-0.00449338 4.98578 0.0217856)
(-0.00167606 4.99721 0.00265779)
(0.149907 4.64876 0.0793981)
(0.201498 4.87594 0.118922)
(0.141748 4.90944 0.0835853)
(0.0883146 4.93969 0.0542661)
(0.0448602 4.97244 0.0295537)
(0.0122254 4.99258 0.00879774)
(-0.00397231 5.00216 -0.00211102)
(-0.183323 4.08977 0.647256)
(-0.193414 4.70546 0.39073)
(-0.132916 4.90826 0.162811)
(-0.082756 4.94165 0.0604077)
(-0.0352764 4.9848 -0.0254657)
(0.0139568 5.02592 -0.0631624)
(0.037356 5.03824 -0.0818924)
(-0.0798067 4.1479 0.386452)
(-0.00943088 4.81197 0.274456)
(0.0725113 5.00346 0.0906618)
(0.0893489 5.01995 0.0161841)
(0.0975993 5.04718 -0.0395472)
(0.0828584 5.07168 -0.0681701)
(0.0233985 5.06204 -0.0482153)
(-0.0591112 3.97689 0.304279)
(-0.0664738 4.72315 0.205463)
(-0.0398278 4.98342 0.0375533)
(-0.0198934 5.03576 -0.0242477)
(0.0145979 5.07712 -0.0608732)
(0.0395881 5.11397 -0.042795)
(0.0524248 5.12193 -0.0226048)
(-0.0227408 3.81434 0.124372)
(-0.00646041 4.69695 0.123307)
(0.0278836 5.00922 0.00758273)
(0.0328767 5.07173 -0.0307543)
(0.02946 5.10699 -0.0270459)
(0.02115 5.13623 -0.0121957)
(0.0264482 5.13487 -0.00875867)
(-0.0124846 3.61041 0.0527286)
(-0.00626098 4.58683 0.0533064)
(0.0101381 5.00554 -0.00163697)
(0.0114816 5.11899 -0.0250196)
(0.0081766 5.15709 -0.0106954)
(0.00664195 5.18467 -0.00182676)
(0.0128411 5.18151 -0.00524781)
(-0.00576532 3.46664 0.0252778)
(-0.00485594 4.46262 0.0291605)
(0.00210745 4.96629 -0.000949804)
(0.0030504 5.14527 -0.0169135)
(0.000740598 5.19191 -0.00390165)
(0.00301829 5.21925 0.000472272)
(0.00676498 5.21632 -0.004785)
(-0.00220432 3.37796 0.0126689)
(-0.00280689 4.34858 0.0153638)
(-0.000850446 4.89969 0.000483733)
(-0.000659212 5.15666 -0.0105937)
(-0.00261858 5.22039 0.000184241)
(0.00153758 5.24827 0.00182754)
(0.00413865 5.24602 -0.00237774)
(-0.00104225 3.32447 0.00733945)
(-0.00135362 4.2542 0.00890086)
(-0.00182321 4.81872 0.0015379)
(-0.00272692 5.15344 -0.00599977)
(-0.0036282 5.24529 0.00242001)
(0.000892672 5.2744 0.002408)
(0.00244641 5.27227 -0.000354787)
(-0.00044356 3.29155 0.003584)
(-0.000560412 4.18177 0.00451034)
(-0.00166306 4.73631 0.00117023)
(-0.00366104 5.13556 -0.00334899)
(-0.00444152 5.26719 0.00284358)
(0.000187485 5.30002 0.00168402)
(0.00204996 5.29818 -0.000512524)
(-0.000292844 3.2718 0.00100546)
(-0.000180754 4.12769 0.00170879)
(-0.00131726 4.66306 0.000442051)
(-0.00393093 5.1032 -0.00196539)
(-0.00503043 5.28537 0.00199884)
(0.000220557 5.3251 0.00066968)
(0.000328739 5.32295 -0.00157104)
(-0.000744959 3.25606 0.00357925)
(-0.000396424 4.08515 0.00347088)
(-0.00132859 4.60172 0.00242767)
(-0.00350137 5.05872 0.000302416)
(-0.0052048 5.29721 0.00280466)
(-0.000864641 5.34909 0.00092398)
(0.00120364 5.34807 -0.000628018)
(0.000347849 3.24335 -0.000189721)
(0.000212135 4.04981 0.000385618)
(-0.000297445 4.55016 0.000337186)
(-0.00259474 5.00642 -0.00053149)
(-0.00471363 5.30087 0.00140013)
(-0.000208749 5.37126 -0.000522633)
(0.00118773 5.37111 -0.00129505)
(-0.000858385 3.23725 0.00441893)
(-0.000855054 4.02484 0.00395465)
(-0.000936912 4.50997 0.00331106)
(-0.00276852 4.95569 0.00219445)
(-0.00477008 5.29839 0.00281118)
(-0.00133834 5.39356 9.28009e-05)
(0.00196924 5.39505 -0.00104234)
(-0.000213351 3.22742 0.00330981)
(-0.00041004 4.00196 0.00398069)
(-0.000560095 4.47428 0.00410438)
(-0.00157405 4.9063 0.00378011)
(-0.00401113 5.28639 0.00432407)
(-0.00142261 5.41277 0.00209668)
(-0.000457082 5.41762 0.00155977)