/*--------------------------------*- C++ -*----------------------------------*\
  =========                 |
  \\      /  F ield         | OpenFOAM: The Open Source CFD Toolbox
   \\    /   O peration     | Website:  https://openfoam.org
    \\  /    A nd           | Version:  12
     \\/     M anipulation  |
\*---------------------------------------------------------------------------*/
FoamFile
{
    format      ascii;
    class       surfaceScalarField;
    location    "13500";
    object      phi;
}
// * * * * * * * * * * * * * * * * * * * * * * * * * * * * * * * * * * * * * //

dimensions      [0 3 -1 0 0 0 0];

internalField   nonuniform List<scalar> 
55962
(
3.2535e-07
-3.82864e-09
6.19222e-06
3.71174e-07
-3.20093e-09
8.14422e-06
4.32293e-07
-7.05543e-09
1.01141e-05
3.41087e-07
-6.51626e-09
1.25141e-05
2.9883e-07
-8.55395e-09
1.48361e-05
2.16937e-07
-1.00446e-08
1.70214e-05
-1.10062e-08
1.82664e-05
9.72554e-08
-6.06954e-07
-9.9769e-09
4.94495e-06
-4.32802e-06
-9.40136e-07
-8.29634e-09
6.88682e-06
-6.54534e-06
-1.15855e-06
-6.10159e-09
8.72846e-06
-8.50394e-06
-1.21593e-06
-1.07151e-09
1.06593e-05
-1.06009e-05
-1.06214e-06
-2.89968e-09
1.27262e-05
-1.28771e-05
-7.72285e-07
-5.1423e-09
1.46268e-05
-1.49116e-05
1.14439e-08
1.56335e-05
-1.5991e-05
-4.26226e-07
-1.73761e-07
4.13132e-09
-4.44078e-06
4.61041e-06
-3.99333e-07
4.84451e-10
-6.74298e-06
6.96807e-06
-4.1501e-07
8.10235e-09
-9.02182e-06
9.02939e-06
-3.49124e-07
1.33314e-08
-1.11851e-05
1.11059e-05
-2.28639e-07
1.80654e-08
-1.34507e-05
1.33122e-05
-1.60652e-07
1.37804e-08
-1.5448e-05
1.53662e-05
-1.77153e-08
-1.65121e-05
1.64722e-05
-1.03078e-07
-5.04677e-08
4.39609e-09
4.30429e-06
-4.25822e-06
-1.57529e-07
1.33082e-08
6.79227e-06
-6.69852e-06
-1.42112e-07
6.99564e-09
9.06861e-06
-9.09103e-06
-9.7213e-08
1.82711e-08
1.12685e-05
-1.13317e-05
-6.63422e-08
-2.69342e-09
1.35413e-05
-1.35694e-05
-7.9426e-08
-7.26537e-09
1.56099e-05
-1.55895e-05
-4.89982e-08
1.66943e-05
-1.67133e-05
-1.1364e-08
-1.50309e-08
1.08447e-08
4.1362e-06
-4.13201e-06
-5.40976e-08
1.20802e-08
6.66428e-06
-6.6373e-06
-3.462e-08
1.35202e-08
9.11728e-06
-9.15028e-06
-7.2217e-09
1.79914e-08
1.14778e-05
-1.15232e-05
-1.11079e-08
3.72471e-09
1.38102e-05
-1.38101e-05
-4.38328e-08
6.7667e-09
1.59045e-05
-1.58785e-05
-1.00605e-08
1.70027e-05
-1.70302e-05
-6.34381e-09
-7.2285e-09
6.35e-09
4.01846e-06
-4.01758e-06
-1.61413e-08
7.06536e-09
6.50116e-06
-6.49931e-06
3.45362e-09
1.01297e-08
9.04647e-06
-9.07619e-06
2.07315e-08
1.00647e-08
1.15632e-05
-1.15905e-05
2.32319e-09
-2.91045e-09
1.3948e-05
-1.39267e-05
-3.13238e-08
1.86117e-10
1.60576e-05
-1.60242e-05
-4.54751e-09
1.71725e-05
-1.7184e-05
-1.52633e-08
-5.85836e-09
4.34653e-09
3.94106e-06
-3.93954e-06
-3.665e-09
5.40322e-09
6.34619e-06
-6.35379e-06
1.78513e-08
7.74337e-09
8.90712e-06
-8.93638e-06
3.21511e-08
5.08421e-09
1.1572e-05
-1.15914e-05
9.90283e-09
-7.15084e-09
1.40197e-05
-1.39903e-05
-1.89063e-08
-4.26939e-09
1.61388e-05
-1.61058e-05
-1.40685e-08
1.72689e-05
-1.72653e-05
-8.4761e-09
-4.31478e-09
4.39663e-09
3.89381e-06
-3.89389e-06
1.00919e-09
5.68418e-09
6.22566e-06
-6.23667e-06
2.28372e-08
7.58651e-09
8.75615e-06
-8.78556e-06
3.88655e-08
3.81824e-09
1.15444e-05
-1.15642e-05
1.55177e-08
-6.09211e-09
1.40806e-05
-1.40512e-05
-8.12314e-09
-2.8686e-09
1.6214e-05
-1.61875e-05
-1.07601e-08
1.73531e-05
-1.73469e-05
-3.53505e-09
-2.82059e-09
4.04983e-09
3.87158e-06
-3.87281e-06
2.76253e-09
5.1501e-09
6.14882e-06
-6.15955e-06
2.26952e-08
6.70216e-09
8.63341e-06
-8.66004e-06
4.11957e-08
4.12025e-09
1.15066e-05
-1.15292e-05
1.8873e-08
-4.37618e-09
1.4162e-05
-1.41353e-05
-2.65478e-09
-2.68767e-09
1.63248e-05
-1.63006e-05
-6.56458e-09
1.74732e-05
-1.74703e-05
9.84e-10
-1.94896e-09
1.48296e-09
3.87061e-06
-3.87015e-06
2.6461e-09
3.14175e-09
6.10834e-06
-6.11607e-06
1.86154e-08
4.17953e-09
8.5514e-06
-8.57155e-06
3.95996e-08
1.90335e-09
1.14649e-05
-1.14878e-05
2.0668e-08
-3.2398e-09
1.42581e-05
-1.4236e-05
6.39627e-10
-1.06236e-09
1.64656e-05
-1.64445e-05
3.54735e-10
1.76282e-05
-1.76237e-05
-4.26438e-09
-4.13143e-09
2.60207e-09
3.84551e-06
-3.84398e-06
-1.4858e-09
2.7784e-09
6.04102e-06
-6.04644e-06
1.02656e-08
3.45239e-09
8.43605e-06
-8.45125e-06
3.1317e-08
2.52409e-09
1.13326e-05
-1.13562e-05
1.78066e-08
-3.39377e-09
1.42503e-05
-1.42334e-05
-2.57627e-09
1.12997e-09
1.65066e-05
-1.64873e-05
-3.69044e-09
1.7677e-05
-1.76699e-05
-6.00613e-09
-1.15409e-09
4.58621e-10
3.84043e-06
-3.83974e-06
1.64654e-09
1.65366e-09
6.00636e-06
-6.01082e-06
1.15732e-08
2.42481e-09
8.36505e-06
-8.3774e-06
3.19401e-08
2.73349e-09
1.12292e-05
-1.12523e-05
2.33205e-08
-8.18039e-10
1.42629e-05
-1.42535e-05
3.51786e-09
4.30253e-09
1.6591e-05
-1.65755e-05
-3.48477e-09
1.77738e-05
-1.77661e-05
-6.56691e-10
-3.06915e-09
-4.82081e-09
3.83472e-06
-3.82683e-06
-2.14376e-09
-5.48082e-09
5.97613e-06
-5.97158e-06
4.73894e-09
-6.02053e-09
8.30189e-06
-8.30275e-06
2.21599e-08
-6.92144e-09
1.11219e-05
-1.11324e-05
2.0306e-08
-1.16782e-08
1.42411e-05
-1.42276e-05
1.79056e-09
-7.92383e-09
1.66583e-05
-1.66319e-05
-2.02708e-08
1.78578e-05
-1.78323e-05
-3.44307e-09
-4.74732e-09
5.15047e-09
3.78812e-06
-3.78853e-06
-5.7367e-09
3.91816e-09
5.89312e-06
-5.89606e-06
-1.62037e-09
2.71597e-09
8.17279e-06
-8.17963e-06
1.17121e-08
6.36431e-10
1.09277e-05
-1.09416e-05
1.47286e-08
-4.81736e-09
1.40776e-05
-1.40758e-05
-2.97841e-09
-3.67784e-09
1.65811e-05
-1.65597e-05
-8.84529e-09
1.77915e-05
-1.77659e-05
-1.97956e-08
-1.2199e-09
4.65136e-09
3.79923e-06
-3.80268e-06
-1.43607e-09
6.03113e-09
5.89252e-06
-5.89835e-06
8.48335e-10
6.27574e-09
8.15523e-06
-8.1638e-06
9.35772e-09
5.36917e-09
1.08798e-05
-1.08937e-05
1.31627e-08
1.35232e-09
1.40619e-05
-1.40671e-05
-5.46177e-09
-8.2067e-10
1.66863e-05
-1.66668e-05
-1.28348e-08
1.7924e-05
-1.78951e-05
-2.15407e-08
-7.32921e-09
-2.25202e-09
3.85612e-06
-3.84654e-06
-1.47663e-08
-1.42186e-09
5.955e-06
-5.94614e-06
-2.14261e-08
-7.99886e-10
8.21955e-06
-8.21209e-06
-2.35304e-08
-7.82794e-10
1.09345e-05
-1.09316e-05
-2.42858e-08
-3.36944e-09
1.41375e-05
-1.41333e-05
-4.43565e-08
-5.09262e-09
1.68925e-05
-1.68673e-05
-1.52592e-08
1.81683e-05
-1.81297e-05
-6.76979e-08
-1.28536e-08
1.8254e-09
3.86053e-06
-3.8495e-06
-2.39207e-08
7.80052e-09
5.9355e-06
-5.93224e-06
-3.50527e-08
1.4472e-08
8.17826e-06
-8.1816e-06
-4.76388e-08
2.41027e-08
1.08562e-05
-1.08677e-05
-5.67534e-08
3.24282e-08
1.40211e-05
-1.40444e-05
-8.52062e-08
4.54465e-08
1.68636e-05
-1.68806e-05
5.55003e-08
1.81484e-05
-1.81797e-05
-1.09411e-07
-1.37209e-07
4.29609e-06
-2.24394e-07
-3.93449e-06
-2.6904e-07
6.3038e-06
-2.45818e-07
-5.92615e-06
-4.20184e-07
8.51648e-06
-2.5573e-07
-8.10961e-06
-5.92766e-07
1.11419e-05
-2.63554e-07
-1.07058e-05
-7.49908e-07
1.4158e-05
-2.56005e-07
-1.37448e-05
-8.65522e-07
1.68479e-05
-2.2828e-07
-1.6504e-05
1.79675e-05
-2.18796e-07
-1.77438e-05
-8.70414e-07
-4.36667e-07
-3.43418e-06
3.68686e-06
1.83986e-07
-7.51291e-07
-5.14492e-06
5.38644e-06
7.31026e-08
-1.14069e-06
-6.99311e-06
7.26565e-06
1.16866e-07
-1.55975e-06
-9.1659e-06
9.44052e-06
1.44436e-07
-1.91448e-06
-1.16657e-05
1.18837e-05
1.36708e-07
-2.10471e-06
-1.38958e-05
1.39658e-05
1.20211e-07
-1.48007e-05
1.46721e-05
3.03911e-08
-2.00651e-06
2.01741e-07
6.6017e-07
2.97268e-07
1.06336e-06
2.72019e-07
1.54862e-06
1.43559e-07
2.10447e-06
-7.93833e-08
2.71521e-06
-3.49243e-07
3.22194e-06
3.17287e-06
-3.55254e-07
-1.1842e-06
-1.92361e-06
6.79467e-06
-2.14407e-06
-2.80295e-06
9.14926e-06
-2.96314e-06
-3.78018e-06
1.18649e-05
-3.60151e-06
-4.94832e-06
1.50272e-05
-3.85989e-06
-6.29636e-06
1.84385e-05
-3.67151e-06
-7.57802e-06
2.13554e-05
-8.28072e-06
2.2152e-05
-2.87069e-06
-1.21111e-06
-5.247e-06
6.6421e-06
-2.28151e-06
-7.95409e-06
9.09759e-06
-3.23925e-06
-1.0778e-05
1.18526e-05
-4.0093e-06
-1.41364e-05
1.50509e-05
-4.50878e-06
-1.78361e-05
1.84723e-05
-4.66784e-06
-2.10249e-05
2.13042e-05
-2.2249e-05
2.2138e-05
-4.5265e-06
-1.0467e-06
-3.16831e-06
-1.24712e-06
5.46214e-06
-2.02273e-06
-4.84949e-06
-2.21552e-06
8.04103e-06
-2.84644e-06
-6.64848e-06
-3.22982e-06
1.0702e-05
-3.49595e-06
-8.7546e-06
-4.42641e-06
1.38305e-05
-3.83608e-06
-1.11444e-05
-5.85737e-06
1.73418e-05
-3.73362e-06
-1.33589e-05
-7.17593e-06
2.04323e-05
-1.43579e-05
-7.7187e-06
2.16303e-05
-3.28728e-06
-8.12053e-07
-1.29589e-06
-2.37778e-06
4.48572e-06
-1.44545e-06
-2.37201e-06
-3.93959e-06
6.945e-06
-1.97895e-06
-3.48025e-06
-5.48378e-06
9.49753e-06
-2.35495e-06
-4.76928e-06
-7.33883e-06
1.24841e-05
-2.44313e-06
-6.2862e-06
-9.52501e-06
1.58994e-05
-2.16885e-06
-7.6473e-06
-1.17278e-05
1.91008e-05
-8.12426e-06
-1.31113e-05
2.0795e-05
-1.72823e-06
7.39668e-07
-5.20387e-06
1.19283e-06
-7.67466e-06
1.39957e-06
-1.03355e-05
1.36128e-06
-1.34856e-05
1.06074e-06
-1.713e-05
5.77254e-07
-2.05227e-05
-2.20803e-05
1.754e-07
-4.66941e-07
-8.65237e-07
-1.79538e-06
3.12756e-06
-7.41756e-07
-2.06672e-06
-3.35863e-06
5.70016e-06
-9.40909e-07
-3.1546e-06
-4.81994e-06
8.1737e-06
-1.01505e-06
-4.38032e-06
-6.57523e-06
1.10297e-05
-9.13087e-07
-5.77678e-06
-8.68628e-06
1.43611e-05
-6.4319e-07
-7.06385e-06
-1.09168e-05
1.77107e-05
-7.5061e-06
-1.26105e-05
1.97164e-05
-2.42932e-07
8.83063e-07
-4.12608e-06
1.39279e-06
-6.51604e-06
1.73877e-06
-8.98436e-06
1.90649e-06
-1.18869e-05
1.85047e-06
-1.52458e-05
1.54842e-06
-1.84896e-05
-2.02841e-05
1.21507e-06
-3.55818e-07
-5.23927e-07
-1.32492e-06
2.20467e-06
-3.86473e-07
-1.81474e-06
-2.82814e-06
4.67354e-06
-3.31618e-07
-2.8962e-06
-4.23219e-06
7.07353e-06
-1.69648e-07
-4.08836e-06
-5.88692e-06
9.81331e-06
1.5076e-07
-5.48321e-06
-7.87991e-06
1.30427e-05
6.34346e-07
-6.81878e-06
-1.01044e-05
1.64396e-05
-7.48588e-06
-1.1763e-05
1.88218e-05
1.06145e-06
1.05402e-06
-3.37333e-06
1.66325e-06
-5.7826e-06
2.1202e-06
-8.17309e-06
2.43444e-06
-1.09778e-05
2.53598e-06
-1.4271e-05
2.38729e-06
-1.75868e-05
-1.96444e-05
1.93528e-06
-3.14188e-07
-4.09537e-07
-9.60424e-07
1.68415e-06
-1.7632e-07
-1.72091e-06
-2.4982e-06
4.08124e-06
2.03449e-08
-2.79061e-06
-3.88344e-06
6.47739e-06
2.84786e-07
-4.0487e-06
-5.40306e-06
9.18732e-06
6.97076e-07
-5.51441e-06
-7.24384e-06
1.2346e-05
1.19456e-06
-6.98912e-06
-9.24404e-06
1.57357e-05
-8.00405e-06
-1.08552e-05
1.81868e-05
1.8671e-06
1.14074e-06
-2.8752e-06
1.87172e-06
-5.28003e-06
2.48609e-06
-7.63717e-06
2.9312e-06
-1.03807e-05
3.1536e-06
-1.36167e-05
3.05319e-06
-1.69931e-05
-1.92808e-05
2.56688e-06
-3.2582e-07
-5.4867e-07
-7.10946e-07
1.58544e-06
-2.15059e-07
-1.85619e-06
-2.20753e-06
3.95296e-06
-2.96262e-08
-3.01537e-06
-3.50591e-06
6.33585e-06
2.16825e-07
-4.32101e-06
-4.9534e-06
9.02796e-06
5.64993e-07
-5.85942e-06
-6.67724e-06
1.21885e-05
1.00242e-06
-7.53679e-06
-8.49199e-06
1.55913e-05
-8.5362e-06
-9.88145e-06
1.81424e-05
1.2777e-06
1.20255e-06
-2.71164e-06
1.95935e-06
-5.11119e-06
2.53018e-06
-7.46964e-06
3.00154e-06
-1.01954e-05
3.3015e-06
-1.34032e-05
3.28363e-06
-1.6763e-05
-1.91065e-05
2.99865e-06
-3.4335e-07
-8.22562e-07
-6.6025e-07
1.82616e-06
-2.80448e-07
-2.1615e-06
-2.10137e-06
4.19996e-06
-1.51267e-07
-3.34482e-06
-3.34981e-06
6.56546e-06
5.44117e-08
-4.74112e-06
-4.71864e-06
9.25409e-06
3.84871e-07
-6.38303e-06
-6.37246e-06
1.2425e-05
8.71992e-07
-8.19815e-06
-8.11177e-06
1.58228e-05
-9.5853e-06
-9.19474e-06
1.83225e-05
1.32949e-06
1.1961e-06
-2.72961e-06
1.92484e-06
-5.09777e-06
2.50121e-06
-7.42711e-06
2.94325e-06
-1.01366e-05
3.21721e-06
-1.33342e-05
3.20614e-06
-1.66791e-05
-1.90266e-05
2.76603e-06
-4.53703e-07
-1.24767e-06
-6.58077e-07
2.35945e-06
-6.10642e-07
-2.58562e-06
-2.08502e-06
4.82757e-06
-6.73321e-07
-3.83822e-06
-3.30968e-06
7.21058e-06
-6.0824e-07
-5.30315e-06
-4.71023e-06
9.94831e-06
-3.43951e-07
-7.08104e-06
-6.34446e-06
1.31612e-05
6.59827e-08
-9.01202e-06
-7.9522e-06
1.65543e-05
-1.0524e-05
-8.85624e-06
1.88845e-05
5.61772e-07
1.05599e-06
-2.96391e-06
1.71839e-06
-5.34938e-06
2.2205e-06
-7.69014e-06
2.62576e-06
-1.04271e-05
2.82577e-06
-1.36535e-05
2.70303e-06
-1.70011e-05
-1.92181e-05
2.20233e-06
-4.44614e-07
-1.7712e-06
-9.04798e-07
3.12062e-06
-7.11334e-07
-3.20236e-06
-2.19504e-06
5.66412e-06
-8.97798e-07
-4.55242e-06
-3.38639e-06
8.12528e-06
-9.7266e-07
-6.15017e-06
-4.7321e-06
1.09571e-05
-8.84191e-07
-8.06375e-06
-6.28036e-06
1.42556e-05
-5.93162e-07
-1.01646e-05
-7.73222e-06
1.76058e-05
-1.17124e-05
-8.31117e-06
1.9602e-05
-1.71606e-07
1.03218e-06
-3.46146e-06
1.65592e-06
-5.91113e-06
2.13268e-06
-8.33886e-06
2.44516e-06
-1.11729e-05
2.51622e-06
-1.44793e-05
2.22076e-06
-1.78214e-05
-1.98737e-05
1.52587e-06
-8.64208e-07
-2.27028e-06
-1.42795e-06
4.56243e-06
-1.45415e-06
-3.82243e-06
-2.53948e-06
6.95185e-06
-1.95624e-06
-5.33221e-06
-3.62711e-06
9.46141e-06
-2.31173e-06
-7.12034e-06
-4.92934e-06
1.24052e-05
-2.41672e-06
-9.21241e-06
-6.46781e-06
1.57852e-05
-2.15172e-06
-1.13456e-05
-7.89495e-06
1.89755e-05
-1.27743e-05
-8.24004e-06
2.06081e-05
-1.74543e-06
9.66336e-07
-4.14141e-06
1.51756e-06
-6.5687e-06
1.87143e-06
-9.07246e-06
2.03544e-06
-1.20165e-05
1.96613e-06
-1.54235e-05
1.65086e-06
-1.87626e-05
-2.06542e-05
1.21959e-06
-1.27004e-06
-2.26299e-06
-2.60969e-06
6.14272e-06
-2.33354e-06
-3.49274e-06
-3.95085e-06
8.50709e-06
-3.20802e-06
-4.83559e-06
-5.39117e-06
1.11012e-05
-3.80526e-06
-6.42296e-06
-7.11258e-06
1.41328e-05
-3.98909e-06
-8.22649e-06
-9.0975e-06
1.75078e-05
-3.75254e-06
-9.81156e-06
-1.09508e-05
2.05258e-05
-1.01234e-05
-1.20819e-05
2.14946e-05
-3.0419e-06
2.02146e-07
-4.38875e-06
3.3237e-07
-6.42592e-06
3.47541e-07
-8.63094e-06
2.00699e-07
-1.12244e-05
-1.24626e-07
-1.41975e-05
-6.00663e-07
-1.69135e-05
-1.79065e-05
-1.09832e-06
3.96366e-07
-4.434e-06
6.49545e-07
-6.74351e-06
7.87749e-07
-9.15648e-06
7.54407e-07
-1.20086e-05
5.12801e-07
-1.53237e-05
6.91371e-08
-1.84021e-05
-1.98212e-05
-4.31549e-07
1.25163e-06
-7.74576e-06
1.84485e-06
-1.07628e-05
2.08258e-06
-1.42456e-05
1.91548e-06
-1.83957e-05
1.29197e-06
-2.30699e-05
2.42401e-07
-2.71513e-05
-2.87583e-05
-9.66912e-07
3.28654e-07
6.18126e-06
3.79339e-07
8.13295e-06
4.41442e-07
1.0099e-05
3.53207e-07
1.24981e-05
3.07808e-07
1.48221e-05
2.20425e-07
1.70068e-05
1.82274e-05
1.17778e-07
-6.18016e-07
5.0056e-06
-4.39756e-06
-9.55101e-07
6.98703e-06
-6.65824e-06
-1.18116e-06
8.87363e-06
-8.65368e-06
-1.24435e-06
1.08494e-05
-1.07872e-05
-1.09729e-06
1.29632e-05
-1.31132e-05
-8.17472e-07
1.49065e-05
-1.51915e-05
1.59403e-05
-1.62839e-05
-4.62453e-07
-3.76616e-07
-4.75746e-06
5.12201e-06
1.20667e-08
-7.43923e-07
-7.11154e-06
7.46684e-06
1.20144e-08
-8.4082e-07
-9.46782e-06
9.5605e-06
4.22377e-09
-7.93535e-07
-1.17442e-05
1.16992e-05
-2.27551e-09
-5.78366e-07
-1.4199e-05
1.399e-05
-6.21104e-09
-2.89743e-07
-1.64124e-05
1.613e-05
-6.19291e-09
-1.7564e-05
1.73406e-05
-1.56941e-08
-5.06079e-08
1.97636e-07
5.04966e-08
2.61396e-07
-1.88275e-07
1.31745e-07
-4.6454e-07
-2.40863e-08
-7.39025e-07
-2.22942e-07
-1.03686e-06
-3.75287e-07
-1.35355e-06
-1.59122e-06
-4.07779e-07
-1.76503e-07
-4.62106e-06
4.80169e-06
-4.021e-07
-7.03167e-06
7.25776e-06
-4.09182e-07
-9.41448e-06
9.42966e-06
-3.33762e-07
-1.16686e-05
1.16066e-05
-1.95761e-07
-1.40281e-05
1.39082e-05
-1.0101e-07
-1.61292e-05
1.60482e-05
-1.72343e-05
1.71856e-05
-6.9969e-08
2.80535e-07
2.20424e-07
5.14284e-07
2.01412e-07
4.66901e-07
1.93404e-07
2.836e-07
2.13857e-07
5.23762e-08
1.93128e-07
-1.06423e-07
1.59611e-07
1.10834e-07
-1.11005e-07
-1.07325e-07
-4.49281e-06
4.60272e-06
-2.58187e-09
-2.66568e-07
-6.96691e-06
7.13609e-06
-9.93685e-09
-2.54474e-07
-9.41414e-06
9.40798e-06
-5.93723e-09
-1.7955e-07
-1.16963e-05
1.16295e-05
-8.18253e-09
-1.04474e-07
-1.40306e-05
1.39602e-05
-4.63668e-09
-7.95672e-08
-1.61204e-05
1.60954e-05
1.1839e-10
-1.73049e-05
1.71939e-05
4.65085e-08
-1.50879e-08
1.81751e-07
1.27127e-07
3.7519e-07
9.74088e-08
3.35613e-07
5.51033e-08
1.78639e-07
6.72451e-08
1.58302e-08
4.03743e-08
-7.73337e-08
2.09002e-08
-6.05402e-08
-1.36094e-07
-5.62368e-08
-4.42796e-06
4.48859e-06
-1.52994e-07
-6.97387e-06
7.08394e-06
-1.31017e-07
-9.48928e-06
9.4743e-06
-6.46044e-08
-1.18301e-05
1.1782e-05
-3.28983e-08
-1.41799e-05
1.41455e-05
-4.87768e-08
-1.62944e-05
1.6303e-05
-1.74909e-05
1.74202e-05
-2.71109e-08
1.08002e-07
6.67596e-08
2.32338e-07
3.78783e-08
2.05764e-07
-5.47279e-08
8.63463e-08
-8.11258e-08
-2.68428e-08
-1.06565e-07
-6.80037e-08
-1.57833e-07
-2.64205e-07
-1.00789e-07
-2.84579e-08
-4.35757e-06
4.39578e-06
-9.74609e-09
-8.77594e-08
-6.94979e-06
7.02559e-06
-1.65041e-08
-6.23022e-08
-9.52906e-06
9.51607e-06
-1.24681e-08
-6.96841e-09
-1.19416e-05
1.19067e-05
-2.04935e-08
4.36524e-09
-1.43133e-05
1.4304e-05
-1.98176e-09
-2.15554e-08
-1.64497e-05
1.64792e-05
-3.61443e-09
-1.76571e-05
1.76142e-05
1.60572e-08
5.33108e-09
7.4784e-08
5.62396e-08
1.71544e-07
3.73927e-08
1.61821e-07
-4.50406e-08
7.38499e-08
-7.16438e-08
-5.9849e-09
-8.79984e-08
-2.71132e-08
-1.25526e-07
-2.19585e-07
-4.44227e-08
-1.46563e-08
-4.27514e-06
4.30064e-06
-5.09894e-08
-6.88142e-06
6.92984e-06
-2.42541e-08
-9.50715e-06
9.49393e-06
2.05461e-08
-1.19884e-05
1.19615e-05
1.87415e-08
-1.43774e-05
1.43829e-05
-1.33398e-08
-1.65261e-05
1.6565e-05
-1.77363e-05
1.77086e-05
4.2797e-09
6.34027e-08
5.72366e-08
1.50157e-07
5.74138e-08
1.60017e-07
-9.30604e-10
9.32094e-08
-1.48245e-08
2.50686e-08
-5.21876e-09
6.45316e-09
-2.82816e-08
-1.21526e-07
5.84134e-09
-8.12697e-09
-4.19936e-06
4.21519e-06
-7.69603e-09
-2.77035e-08
-6.79276e-06
6.8206e-06
-8.25779e-09
-1.56571e-09
-9.44788e-06
9.43331e-06
-1.15659e-08
3.49636e-08
-1.19981e-05
1.19748e-05
-1.3295e-08
2.33483e-08
-1.44048e-05
1.44165e-05
-6.91911e-11
-1.00318e-08
-1.65645e-05
1.66009e-05
-3.04686e-09
-1.77739e-05
1.77481e-05
7.79407e-09
8.02174e-09
5.18573e-08
4.9416e-08
1.31186e-07
5.77449e-08
1.54438e-07
2.2799e-08
1.00986e-07
1.69168e-08
4.27204e-08
3.63336e-08
1.86733e-08
2.45264e-08
-4.47054e-08
-1.94172e-09
-4.96879e-09
-4.1381e-06
4.14942e-06
-1.22454e-08
-6.7046e-06
6.71894e-06
1.51018e-08
-9.37657e-06
9.35935e-06
4.54303e-08
-1.19971e-05
1.19768e-05
2.68044e-08
-1.44272e-05
1.44429e-05
-7.36326e-09
-1.65953e-05
1.66297e-05
-1.78059e-05
1.77852e-05
8.78225e-09
3.87445e-08
3.83388e-08
1.06113e-07
4.86301e-08
1.37834e-07
2.50184e-08
9.61986e-08
1.93752e-08
4.50704e-08
4.04138e-08
2.13846e-08
2.92762e-08
-3.66411e-08
1.75056e-10
-2.6904e-09
-4.09366e-06
4.10176e-06
-5.411e-09
-1.13446e-09
-6.62603e-06
6.6312e-06
-6.72133e-09
2.7601e-08
-9.30302e-06
9.28357e-06
-9.28752e-09
5.40927e-08
-1.19973e-05
1.19784e-05
-7.61891e-09
3.19058e-08
-1.4458e-05
1.44755e-05
4.66969e-09
8.36362e-11
-1.66368e-05
1.66674e-05
1.24032e-09
-1.78459e-05
1.783e-05
9.9199e-09
6.08053e-09
2.69995e-08
2.87597e-08
8.08272e-08
3.90789e-08
1.17184e-07
1.99748e-08
8.52469e-08
1.15072e-08
3.96641e-08
3.05451e-08
1.5739e-08
1.68317e-08
-4.85567e-08
3.61652e-09
-1.57397e-09
-4.06196e-06
4.06789e-06
4.57298e-09
-6.55678e-06
6.55604e-06
3.37634e-08
-9.22868e-06
9.20723e-06
5.7912e-08
-1.19955e-05
1.19765e-05
3.30589e-08
-1.44947e-05
1.45124e-05
1.49376e-09
-1.66835e-05
1.67108e-05
-1.78946e-05
1.78764e-05
5.61566e-09
1.87655e-08
2.10334e-08
6.43449e-08
2.88377e-08
1.03804e-07
1.54357e-08
8.14539e-08
5.23338e-09
4.02048e-08
2.20563e-08
1.71431e-08
6.93158e-09
-5.37775e-08
6.33165e-09
-1.34682e-09
-4.03761e-06
4.04329e-06
-4.33504e-09
6.59373e-09
-6.49512e-06
6.49245e-06
-5.27497e-09
3.50984e-08
-9.15245e-06
9.13125e-06
-7.29742e-09
5.77378e-08
-1.19868e-05
1.19685e-05
-4.36809e-09
3.12325e-08
-1.45325e-05
1.45518e-05
7.24725e-09
3.56989e-10
-1.67331e-05
1.67593e-05
4.68334e-09
-1.79455e-05
1.79333e-05
1.4975e-08
-2.43322e-09
1.2993e-08
1.728e-08
5.02828e-08
2.36288e-08
8.95661e-08
1.54917e-08
7.44673e-08
4.75735e-09
3.49382e-08
1.94001e-08
9.27404e-09
3.2908e-09
-5.03492e-08
-9.47357e-09
-2.04653e-11
-4.0191e-06
4.02351e-06
9.72771e-09
-6.44123e-06
6.43716e-06
3.85471e-08
-9.07707e-06
9.05583e-06
6.25182e-08
-1.19711e-05
1.19509e-05
3.67765e-08
-1.45692e-05
1.45889e-05
7.99369e-09
-1.67822e-05
1.68081e-05
-1.79952e-05
1.79893e-05
3.13427e-09
9.49873e-09
1.46988e-08
4.08385e-08
1.9887e-08
8.01939e-08
1.48256e-08
7.24167e-08
5.2039e-09
3.74589e-08
1.74971e-08
1.31646e-08
1.42956e-09
-4.96451e-08
8.78463e-10
-8.96712e-11
-4.00561e-06
4.00957e-06
-3.87348e-09
9.30135e-09
-6.3964e-06
6.39193e-06
-4.92328e-09
3.61818e-08
-9.00577e-06
8.98558e-06
-6.69546e-09
6.03632e-08
-1.19485e-05
1.19277e-05
-3.41166e-09
3.44379e-08
-1.46076e-05
1.46273e-05
6.24479e-09
5.32401e-09
-1.68336e-05
1.686e-05
2.69465e-09
-1.80459e-05
1.80473e-05
1.0259e-08
-6.32686e-09
7.17502e-09
1.07299e-08
3.32587e-08
1.4679e-08
7.09945e-08
1.23274e-08
7.10117e-08
2.47812e-09
4.00441e-08
1.22708e-08
1.85913e-08
-4.04936e-09
-5.00799e-08
1.2083e-08
2.03046e-10
-3.99677e-06
4.00062e-06
9.40724e-09
-6.35947e-06
6.35542e-06
3.41174e-08
-8.94177e-06
8.92377e-06
5.86229e-08
-1.1921e-05
1.19006e-05
3.49668e-08
-1.46473e-05
1.46666e-05
7.79596e-09
-1.68924e-05
1.69169e-05
-1.81072e-05
1.81083e-05
1.15456e-10
4.058e-09
8.74179e-09
2.4722e-08
1.1796e-08
5.83824e-08
1.015e-08
6.41301e-08
9.50295e-10
3.57652e-08
8.29375e-09
1.28327e-08
-9.46427e-09
-4.69659e-08
-6.59779e-11
-4.2552e-10
-3.98974e-06
3.99376e-06
-3.58973e-09
7.8417e-09
-6.32695e-06
6.32382e-06
-5.13531e-09
2.95387e-08
-8.88274e-06
8.86752e-06
-6.48445e-09
5.37145e-08
-1.18854e-05
1.18652e-05
-3.94053e-09
3.10059e-08
-1.46819e-05
1.4702e-05
2.58993e-09
3.40416e-09
-1.69441e-05
1.69744e-05
-2.68626e-09
-1.81597e-05
1.8175e-05
-3.96793e-09
-7.96834e-09
2.05007e-09
8.82648e-09
1.89447e-08
1.15734e-08
4.87621e-08
1.12117e-08
6.02634e-08
3.69059e-09
3.52843e-08
9.71064e-09
1.25796e-08
-4.44546e-09
-4.38655e-08
5.05759e-09
-8.4156e-10
-3.98403e-06
3.98635e-06
6.29754e-09
-6.29775e-06
6.29375e-06
2.53764e-08
-8.82744e-06
8.81254e-06
5.00563e-08
-1.18409e-05
1.18181e-05
3.08054e-08
-1.47088e-05
1.47248e-05
5.3652e-09
-1.69962e-05
1.70206e-05
-1.8211e-05
1.82264e-05
-9.67224e-09
6.89327e-10
9.03475e-09
1.41771e-08
1.25791e-08
4.00753e-08
1.41813e-08
5.50594e-08
9.31838e-09
3.28594e-08
1.53717e-08
1.11073e-08
-9.50194e-11
-2.92165e-08
4.38797e-09
-1.06682e-09
-3.97681e-06
3.9782e-06
-3.23622e-10
4.84992e-09
-6.26871e-06
6.264e-06
-1.20636e-09
2.16379e-08
-8.77335e-06
8.75858e-06
-2.02036e-09
4.74324e-08
-1.17848e-05
1.17599e-05
-9.59631e-10
3.13757e-08
-1.47229e-05
1.47337e-05
5.23347e-09
8.95678e-09
-1.70354e-05
1.70562e-05
1.65242e-09
-1.82565e-05
1.82635e-05
3.97445e-09
-1.99817e-09
1.15658e-09
8.38617e-09
1.34452e-08
1.27526e-08
3.66613e-08
1.59757e-08
5.57764e-08
1.42193e-08
3.70309e-08
2.07217e-08
1.59325e-08
6.26671e-09
-2.28735e-08
8.65842e-09
-1.71146e-09
-3.96609e-06
3.9704e-06
2.54454e-09
-6.2369e-06
6.23543e-06
1.65384e-08
-8.71672e-06
8.70618e-06
4.08502e-08
-1.17155e-05
1.16937e-05
2.71314e-08
-1.47196e-05
1.47299e-05
6.17455e-09
-1.70609e-05
1.70829e-05
-1.82864e-05
1.82933e-05
-4.39053e-09
1.15262e-09
1.09641e-08
1.15029e-08
1.67455e-08
3.17797e-08
2.1585e-08
5.28245e-08
2.33797e-08
3.62453e-08
3.06644e-08
1.45982e-08
1.69745e-08
-1.01474e-08
1.82975e-09
-2.34127e-09
-3.95225e-06
3.95801e-06
-3.41979e-09
8.21601e-10
-6.20197e-06
6.20299e-06
-4.17638e-09
1.27574e-08
-8.65657e-06
8.64942e-06
-4.77635e-09
3.55496e-08
-1.16339e-05
1.16153e-05
-4.26891e-09
2.46121e-08
-1.4696e-05
1.47065e-05
4.27694e-10
4.61023e-09
-1.70679e-05
1.70931e-05
-5.21458e-09
-1.82964e-05
1.83068e-05
-3.39213e-09
-2.39929e-09
2.51521e-09
1.56309e-08
1.18117e-08
2.41577e-08
2.97774e-08
3.16412e-08
5.16158e-08
3.80061e-08
3.79181e-08
4.75971e-08
1.63208e-08
3.66759e-08
1.84934e-08
-5.24913e-09
-2.82664e-09
-3.94091e-06
3.94419e-06
-2.43073e-10
-6.17118e-06
6.17025e-06
1.04607e-08
-8.60196e-06
8.59368e-06
3.27547e-08
-1.15537e-05
1.15341e-05
2.59283e-08
-1.46679e-05
1.46739e-05
7.12795e-09
-1.70749e-05
1.7098e-05
-1.83095e-05
1.83155e-05
-2.3575e-09
2.90493e-09
1.42015e-08
1.09768e-08
2.3737e-08
2.69988e-08
3.14312e-08
4.97155e-08
3.8943e-08
3.74655e-08
5.08804e-08
1.40668e-08
4.15841e-08
2.67911e-08
-1.54374e-08
-1.35635e-09
-3.9406e-06
3.9381e-06
3.85667e-09
1.52648e-09
-6.15654e-06
6.15036e-06
3.29716e-09
1.17751e-08
-8.56903e-06
8.556e-06
2.77963e-09
3.36279e-08
-1.14983e-05
1.14739e-05
2.54622e-09
3.05005e-08
-1.46625e-05
1.46596e-05
6.07747e-09
1.38265e-08
-1.71118e-05
1.71296e-05
-1.18912e-09
-1.83527e-05
1.83535e-05
2.95233e-09
1.00074e-08
2.15974e-10
3.37637e-09
6.18553e-09
7.738e-09
1.93816e-08
1.14607e-08
4.08124e-08
1.4379e-08
3.40222e-08
1.81624e-08
1.49822e-08
5.27615e-09
-1.42566e-08
-7.95994e-09
1.202e-09
-3.95187e-06
3.94584e-06
4.77415e-09
-6.16132e-06
6.15226e-06
1.42861e-08
-8.56337e-06
8.54784e-06
3.43341e-08
-1.14776e-05
1.14507e-05
3.34649e-08
-1.46932e-05
1.46824e-05
1.62702e-08
-1.71981e-05
1.72074e-05
-1.84527e-05
1.84411e-05
7.58167e-09
-6.47522e-09
-7.29532e-09
-6.3451e-09
-1.1089e-08
1.81566e-09
-1.55344e-08
2.05285e-08
-2.24225e-08
1.76061e-08
-3.0708e-08
2.22528e-09
-5.30967e-08
-8.60382e-08
-1.09332e-08
3.22632e-09
-3.96582e-06
3.96191e-06
6.8204e-10
7.68309e-09
-6.17411e-06
6.16742e-06
2.22294e-09
1.6821e-08
-8.57073e-06
8.55809e-06
3.50359e-09
3.51489e-08
-1.14739e-05
1.14501e-05
5.44909e-09
3.62126e-08
-1.47372e-05
1.47247e-05
1.13773e-08
1.67542e-08
-1.73038e-05
1.73132e-05
1.00501e-08
-1.85713e-05
1.85645e-05
2.06606e-08
2.91089e-09
-8.83892e-09
-1.11354e-08
-1.16971e-08
-1.89857e-08
-6.1948e-09
-2.83993e-08
1.12176e-08
-4.06425e-08
1.21358e-08
-5.57001e-08
-8.53214e-10
-8.34538e-08
-1.14645e-07
-1.6352e-08
2.31075e-09
-3.97268e-06
3.97551e-06
6.45847e-09
-6.1787e-06
6.17847e-06
1.48256e-08
-8.56912e-06
8.56347e-06
3.16704e-08
-1.1459e-05
1.14428e-05
3.57598e-08
-1.47586e-05
1.47497e-05
1.83372e-08
-1.73891e-05
1.74028e-05
-1.86692e-05
1.86728e-05
5.97209e-09
-6.79366e-09
-3.97832e-09
-8.60953e-09
-9.4643e-09
-3.12861e-09
-1.65112e-08
1.36127e-08
-2.56811e-08
1.80833e-08
-3.82977e-08
5.7191e-09
-6.34754e-08
-9.37215e-08
-5.32686e-09
3.94101e-10
-3.96957e-06
3.97691e-06
-7.74423e-09
3.79912e-09
-6.16855e-06
6.17306e-06
-7.92553e-09
1.11376e-08
-8.54783e-06
8.54764e-06
-7.15511e-09
2.66466e-08
-1.14189e-05
1.14087e-05
-5.36244e-09
3.47957e-08
-1.47381e-05
1.47307e-05
-7.73581e-10
1.9736e-08
-1.7429e-05
1.74447e-05
-5.86349e-10
-1.87185e-05
1.87288e-05
8.76276e-09
6.28561e-10
-1.15741e-09
7.10012e-09
1.10449e-09
7.66081e-09
8.98612e-09
7.75747e-09
2.59293e-08
7.03023e-09
3.35239e-08
3.95809e-09
2.00846e-08
-1.27761e-08
-3.15859e-08
5.96275e-09
-4.25069e-09
-3.96283e-06
3.97172e-06
-4.61733e-09
-6.15033e-06
6.15672e-06
-1.12168e-09
-8.51477e-06
8.51754e-06
9.4504e-09
-1.13625e-05
1.13573e-05
1.55609e-08
-1.46856e-05
1.46809e-05
-7.67107e-09
-1.74317e-05
1.74541e-05
-1.87258e-05
1.8747e-05
-4.17567e-08
2.0552e-09
1.20218e-08
6.57631e-09
1.82032e-08
1.54284e-08
2.40217e-08
3.18177e-08
2.9823e-08
4.18968e-08
3.50294e-08
2.64492e-08
2.84107e-08
1.47778e-08
1.4699e-08
-8.87678e-09
-3.96469e-06
3.97326e-06
2.93479e-10
-1.43167e-08
-6.13971e-06
6.14582e-06
-6.77816e-10
-1.60574e-08
-8.49011e-06
8.49281e-06
-9.54606e-10
-1.12073e-08
-1.13151e-05
1.13105e-05
-2.82469e-10
-7.0646e-09
-1.46334e-05
1.46264e-05
2.85586e-09
-2.5298e-08
-1.74378e-05
1.74518e-05
4.2255e-09
-1.87455e-05
1.87527e-05
2.16487e-08
-5.41585e-08
-2.90845e-09
9.93318e-09
-3.90349e-09
1.80049e-08
-1.58766e-09
2.51075e-08
7.10767e-09
3.3493e-08
1.23972e-08
4.21882e-08
-9.23821e-09
3.79581e-08
2.7338e-08
-3.50091e-08
-1.6712e-08
-3.95764e-06
3.9721e-06
-3.20353e-08
-6.11262e-06
6.12652e-06
-4.40608e-08
-8.44098e-06
8.4522e-06
-4.87165e-08
-1.12343e-05
1.12382e-05
-4.861e-08
-1.45289e-05
1.45254e-05
-6.33824e-08
-1.73774e-05
1.73871e-05
-1.86974e-05
1.8695e-05
-7.6181e-08
-9.81127e-10
1.66016e-08
-5.1026e-10
3.27368e-08
1.02738e-09
5.02887e-08
7.27709e-09
6.99498e-08
1.11391e-08
9.3617e-08
-1.21815e-08
9.77284e-08
7.32254e-08
-3.01505e-08
-3.08296e-08
-3.86883e-06
3.90369e-06
-4.03369e-09
-5.71942e-08
-5.97827e-06
6.01135e-06
-6.71659e-09
-7.84569e-08
-8.25051e-06
8.28091e-06
-9.13416e-09
-8.79905e-08
-1.09702e-05
1.09915e-05
-1.17737e-08
-8.31076e-08
-1.41839e-05
1.41916e-05
-1.24903e-08
-8.18237e-08
-1.70184e-05
1.70324e-05
-1.53207e-08
-1.83327e-05
1.8334e-05
-8.7636e-09
-7.43219e-08
2.30386e-08
8.02291e-08
3.69896e-08
1.34293e-07
4.63597e-08
1.92326e-07
5.44552e-08
2.59889e-07
5.73992e-08
3.38542e-07
3.35996e-08
3.92469e-07
3.90244e-07
5.61411e-09
-5.22372e-08
-3.67764e-06
3.7317e-06
-9.5195e-08
-5.68954e-06
5.7403e-06
-1.31057e-07
-7.85025e-06
7.90059e-06
-1.53683e-07
-1.04298e-05
1.04766e-05
-1.56318e-07
-1.34783e-05
1.35133e-05
-1.56045e-07
-1.62201e-05
1.62653e-05
-1.74766e-05
1.7502e-05
-1.25962e-07
5.93369e-08
1.66718e-07
9.86366e-08
2.82515e-07
1.23138e-07
4.0615e-07
1.37925e-07
5.46902e-07
1.34988e-07
7.16223e-07
9.21456e-08
8.55146e-07
9.03467e-07
4.60499e-08
-6.01909e-08
-3.48942e-06
3.45304e-06
9.65669e-08
-1.11501e-07
-5.39457e-06
5.36473e-06
8.11469e-08
-1.63156e-07
-7.44033e-06
7.4129e-06
7.90898e-08
-2.16705e-07
-9.87568e-06
9.85721e-06
7.20272e-08
-2.64841e-07
-1.27499e-05
1.27434e-05
5.46879e-08
-2.98778e-07
-1.5389e-05
1.54043e-05
1.85497e-08
-1.65866e-05
1.66095e-05
-1.32684e-08
-3.08456e-07
5.33797e-08
1.88899e-07
8.57658e-08
3.13339e-07
9.53916e-08
4.50626e-07
8.87144e-08
6.0756e-07
6.11788e-08
7.90913e-07
-4.2569e-09
9.41774e-07
9.81017e-07
-6.9827e-08
8.73847e-09
4.01076e-06
-4.24389e-06
-1.43132e-08
6.17749e-06
-6.40025e-06
-1.11284e-07
8.60557e-06
-8.76433e-06
-2.89859e-07
1.14947e-05
-1.15797e-05
-5.02424e-07
1.48345e-05
-1.48779e-05
-6.75289e-07
1.78549e-05
-1.79103e-05
1.92157e-05
-1.92895e-05
-8.20329e-07
-1.67188e-06
-2.06311e-06
-2.98051e-06
-3.27671e-06
-4.06788e-06
-4.55265e-06
-4.8837e-06
-6.08513e-06
-5.20497e-06
-7.91418e-06
-4.81468e-06
-9.68674e-06
-1.06377e-05
-3.71961e-06
-2.33654e-07
-5.572e-07
-4.12074e-07
-8.57102e-07
-5.82438e-07
-1.18107e-06
-7.38449e-07
-1.56648e-06
-8.40195e-07
-2.03278e-06
-8.43279e-07
-2.50285e-06
-2.78734e-06
-7.35928e-07
7.08442e-07
2.43461e-06
3.37064e-06
1.06997e-06
3.25761e-06
4.56769e-06
1.4199e-06
4.02984e-06
5.78846e-06
1.60351e-06
5.01394e-06
7.21887e-06
1.60776e-06
6.00643e-06
8.7746e-06
1.34611e-06
6.98754e-06
1.02036e-05
7.56571e-06
1.10383e-05
8.778e-07
7.82049e-07
2.81723e-06
2.91447e-06
1.23196e-06
3.80494e-06
3.93191e-06
1.5432e-06
4.85192e-06
5.00502e-06
1.70001e-06
6.03825e-06