/*--------------------------------*- C++ -*----------------------------------*\
  =========                 |
  \\      /  F ield         | OpenFOAM: The Open Source CFD Toolbox
   \\    /   O peration     | Website:  https://openfoam.org
    \\  /    A nd           | Version:  12
     \\/     M anipulation  |
\*---------------------------------------------------------------------------*/
FoamFile
{
    format      ascii;
    class       volVectorField;
    location    "13500";
    object      U;
}
// * * * * * * * * * * * * * * * * * * * * * * * * * * * * * * * * * * * * * //

dimensions      [0 1 -1 0 0 0 0];

internalField   nonuniform List<vector> 
24749
(
(-0.00335217 4.76693 -0.0665631)
(-0.0186288 4.87781 -0.0295681)
(-0.0299927 4.93492 -0.0324579)
(-0.0339055 4.96242 -0.0160001)
(-0.0336436 4.98246 -0.00642137)
(-0.0322875 4.99374 -1.76309e-05)
(-0.0281053 4.99938 0.00352176)
(-0.0134507 4.10365 0.709693)
(0.0466001 4.74919 0.315013)
(0.0768399 4.94237 0.183952)
(0.106189 5.01202 0.136393)
(0.114513 5.07912 0.0726678)
(0.123536 5.11817 0.0264165)
(0.108969 5.1081 -0.000829342)
(-0.0347709 3.94615 0.19776)
(-0.00618452 4.74417 0.180664)
(0.0386792 4.99747 0.0242071)
(0.0472853 5.04291 -0.0203458)
(0.0445207 5.07698 -0.037973)
(0.0319685 5.10896 -0.0224304)
(0.0326249 5.11227 -0.00158118)
(-0.0180008 3.70661 0.0825221)
(-0.0075808 4.64667 0.0796856)
(0.0165374 5.01315 0.0022254)
(0.0186326 5.09936 -0.0273244)
(0.0149645 5.13544 -0.0148544)
(0.00968406 5.16352 -0.00237284)
(0.0139026 5.16091 -0.0014631)
(-0.00843403 3.53098 0.0349803)
(-0.00553606 4.52479 0.0387518)
(0.00525475 4.99001 -0.00224069)
(0.00631109 5.13437 -0.0212017)
(0.00337467 5.17574 -0.00726999)
(0.00383274 5.20289 -0.000547167)
(0.00842637 5.19945 -0.00446604)
(-0.0037538 3.41587 0.0183058)
(-0.00396314 4.40301 0.0219148)
(0.000244725 4.93532 0.000196654)
(0.000892381 5.15232 -0.0132388)
(-0.00135071 5.20633 -0.00114435)
(0.0026432 5.23385 0.0019293)
(0.00526729 5.23114 -0.00377197)
(-0.00155493 3.34787 0.00990826)
(-0.00199827 4.29867 0.0118953)
(-0.00158993 4.86014 0.00134563)
(-0.00183009 5.15686 -0.00786508)
(-0.00320588 5.23313 0.00164185)
(0.000795384 5.26153 0.00222482)
(0.00386632 5.25959 -0.00112262)
(-0.000495738 3.30695 0.00456403)
(-0.000760986 4.21584 0.00583236)
(-0.00179727 4.77749 0.000890196)
(-0.00330195 5.14688 -0.00486794)
(-0.00427163 5.25713 0.00220092)
(0.000298172 5.28828 0.00150219)
(0.00176482 5.28617 -0.00104267)
(-0.000271175 3.28015 0.00186947)
(-0.000372684 4.15264 0.00278235)
(-0.00149935 4.69802 0.000679646)
(-0.00390079 5.12111 -0.00292627)
(-0.0048314 5.27687 0.00224269)
(-0.00011973 5.31302 0.00105483)
(0.000991906 5.31133 -0.00176985)
(-0.000533041 3.26471 0.00219502)
(-0.000264946 4.10607 0.00236237)
(-0.00124967 4.63162 0.00128039)
(-0.00373476 5.08282 -0.000602404)
(-0.00521619 5.29287 0.00211966)
(-5.28892e-05 5.33831 0.000769073)
(-3.86358e-05 5.33659 -0.00191179)
(1.76216e-05 3.24797 0.00173625)
(-8.75772e-05 4.06565 0.00209933)
(-0.000616153 4.57404 0.00157303)
(-0.00290451 5.03238 0.000135349)
(-0.00455261 5.29949 0.00236108)
(-0.000211644 5.35998 0.000212901)
(0.00088731 5.35925 -0.00122308)
(-0.000130464 3.23982 0.001102)
(-0.000248157 4.03629 0.00123663)
(-0.00057109 4.52885 0.00103861)
(-0.00268072 4.98069 0.000190476)
(-0.00485903 5.30058 0.0014786)
(-0.00125225 5.38255 -0.000694341)
(0.00108479 5.38336 -0.00105785)
(-0.000887328 3.23327 0.00582699)
(-0.000986463 4.01357 0.00543806)
(-0.00107464 4.49196 0.00487857)
(-0.00240738 4.93092 0.00388725)
(-0.00461249 5.29372 0.00430196)
(-0.00171725 5.40363 0.00174068)
(7.69033e-05 5.40647 0.00133226)
(0.000821656 3.2223 -0.00150266)
(0.000543811 3.99117 8.18082e-05)
(0.00018745 4.45787 0.00108206)
(-0.000827512 4.88293 0.00168695)
(-0.00334103 5.27692 0.00268479)
(-0.000960399 5.42117 0.0010392)
(0.00116976 5.42842 0.000853454)
(0.00053787 3.22159 -0.00336251)
(0.000631399 3.97781 -0.00243491)
(0.000445667 4.43349 -0.00123159)
(-0.000230587 4.845 -0.000130211)
(-0.00255581 5.2557 0.00113869)
(-0.00080786 5.43874 0.000619039)
(0.00276075 5.45049 0.00268503)
(-0.000541564 3.24225 0.00160679)
(0.000699109 3.98708 0.00130565)
(0.00157611 4.43252 0.00112457)
(0.00235598 4.83102 0.00128549)
(0.00182368 5.24512 0.00173256)
(0.00421287 5.466 0.000726899)
(0.00504696 5.48483 0.00152352)
(0.0022885 3.26375 -0.00166689)
(0.00311962 4.0012 -0.00362727)
(0.00358901 4.44195 -0.00478864)
(0.00633672 4.83196 -0.00602153)
(0.0066203 5.24325 -0.0062801)
(0.0110151 5.50185 -0.00693364)
(0.0159094 5.52902 -0.00605569)
(-0.0140235 3.65596 0.165799)
(-0.00716604 4.30518 0.132904)
(0.0116427 4.72009 0.109907)
(0.0428433 5.08595 0.0899227)
(0.0703244 5.46099 0.0707846)
(0.108239 5.70384 0.054348)
(0.150927 5.71461 0.049308)
(0.0684526 3.88143 -0.111445)
(0.0903907 4.6418 -0.0634493)
(0.125113 5.08039 -0.0623959)
(0.194177 5.44878 -0.0514315)
(0.277454 5.8039 -0.0287606)
(0.364343 6.00372 -0.00233864)
(0.34907 5.91975 0.00109615)
(0.095036 3.7581 0.0299241)
(0.122222 4.45283 0.0295397)
(0.126668 4.8581 0.035071)
(0.124932 5.21065 0.0440943)
(0.150057 5.57283 0.0440349)
(0.184511 5.81142 0.0373111)
(0.222547 5.79425 0.0150506)
(-0.108453 4.7451 -0.148826)
(-0.105801 5.16936 -0.153792)
(0.00270658 5.50891 -0.136885)
(0.161583 5.79842 -0.119953)
(0.287859 6.06166 -0.102658)
(0.425925 6.16016 -0.0769082)
(0.453711 6.03419 -0.0526514)
(0.0615768 4.63086 -0.278159)
(0.165612 5.10686 -0.0656635)
(0.267358 5.47145 -0.0542198)
(0.359224 5.78687 -0.0439666)
(0.474723 6.05252 -0.0362674)
(0.593148 6.15541 -0.0400834)
(0.590583 6.00626 -0.0203331)
(0.244189 4.02123 0.629831)
(0.274996 4.73419 0.487643)
(0.302305 5.12898 0.425469)
(0.344878 5.47894 0.312038)
(0.397716 5.80713 0.18611)
(0.452334 6.0074 0.0535896)
(0.398504 5.89821 0.0143166)
(0.43145 3.2726 0.349826)
(0.449627 4.10041 0.336617)
(0.429351 4.55945 0.279432)
(0.425283 4.95464 0.213876)
(0.425883 5.33777 0.13897)
(0.425325 5.62159 0.0766026)
(0.394309 5.71592 0.0692785)
(0.42093 3.48704 0.092566)
(0.452622 4.25067 0.0452188)
(0.43548 4.68522 0.0546263)
(0.422699 5.06018 0.0605477)
(0.3974 5.44239 0.0459469)
(0.381591 5.71651 0.0188969)
(0.325218 5.76554 0.067903)
(0.500455 2.4959 0.0930071)
(0.439974 3.52896 0.113034)
(0.414429 4.04604 0.132995)
(0.40442 4.47716 0.105524)
(0.401688 4.90399 0.106012)
(0.403601 5.27547 0.0967218)
(0.411986 5.47313 0.0970425)
(0.420977 2.8328 -0.043704)
(0.409424 3.78229 -0.0837272)
(0.384155 4.28155 -0.0594092)
(0.374675 4.68857 -0.0230439)
(0.371364 5.09068 0.00729529)
(0.369242 5.43272 0.042527)
(0.364939 5.58984 0.0551527)
(0.449272 1.7984 -0.109194)
(0.329999 2.99922 -0.0475518)
(0.336208 3.5872 -0.00068047)
(0.353807 4.05335 0.0210706)
(0.366109 4.5168 0.0415424)
(0.408762 4.96056 0.0785128)
(0.44316 5.28318 0.102964)
(0.245462 2.16821 -0.153481)
(0.264028 3.30033 -0.171902)
(0.259214 3.85965 -0.137265)
(0.273584 4.29977 -0.0919086)
(0.296631 4.73992 -0.0450533)
(0.328001 5.14786 0.000840348)
(0.350864 5.41478 0.0242149)
(0.239986 1.40432 -0.143928)
(0.208023 2.70001 -0.10341)
(0.290507 3.34138 -0.0764952)
(0.291081 3.82955 -0.0377551)
(0.323532 4.30374 -0.00526229)
(0.406923 4.77305 0.0342262)
(0.435078 5.13808 0.0480154)
(0.0982968 1.71063 -0.186188)
(0.117439 2.929 -0.170054)
(0.135228 3.54307 -0.136359)
(0.178723 4.00872 -0.0922798)
(0.228231 4.4673 -0.0494357)
(0.29452 4.92159 -0.00647884)
(0.329514 5.27369 0.0189488)
(0.153228 1.33495 -0.0221103)
(0.143908 2.63123 -0.028918)
(0.187269 3.27895 -0.0215776)
(0.252296 3.77222 -0.0139156)
(0.265895 4.24871 -0.012446)
(0.342962 4.72173 -0.00172581)
(0.405158 5.09699 -0.0298103)
(0.00470551 1.57084 -0.101049)
(0.0097243 2.80302 -0.112818)
(0.0423551 3.44674 -0.0901638)
(0.0986184 3.92229 -0.0620189)
(0.162443 4.38015 -0.0396286)
(0.255435 4.83411 -0.00327287)
(0.287147 5.19336 -0.0132576)
(0.20885 1.52745 0.0959761)
(0.21009 2.76492 0.0641635)
(0.223513 3.3724 0.0371635)
(0.290699 3.84829 0.0220088)
(0.288131 4.31711 0.00894954)
(0.346935 4.78343 -0.0211444)
(0.437063 5.13873 -0.0646233)
(-0.0130715 1.57877 0.044326)
(-0.00973861 2.79522 0.0469258)
(0.0291828 3.42657 0.0369331)
(0.0851057 3.9012 0.0321933)
(0.156128 4.36082 0.0245819)
(0.235055 4.81654 0.0144879)
(0.313182 5.17954 0.00078527)
(0.453793 1.91876 0.113367)
(0.340253 3.07616 0.0659399)
(0.339296 3.63669 0.0330582)
(0.333749 4.08995 0.0150651)
(0.331221 4.53959 0.00390706)
(0.358971 4.97073 -0.0377439)
(0.373527 5.27222 -0.0359786)
(0.065467 1.78921 0.161459)
(0.0783009 2.98154 0.160899)
(0.0951527 3.57169 0.139493)
(0.137153 4.02664 0.103269)
(0.186224 4.47606 0.0744732)
(0.2484 4.91793 0.0253791)
(0.288342 5.24625 0.0148304)
(0.587553 2.52163 -0.0764007)
(0.475461 3.52891 -0.111824)
(0.441016 4.03805 -0.126663)
(0.416066 4.46123 -0.106097)
(0.402954 4.87855 -0.108675)
(0.402649 5.25306 -0.0836806)
(0.408864 5.45352 -0.149901)
(0.30787 2.17574 0.203352)
(0.319315 3.30614 0.21067)
(0.292383 3.8631 0.173305)
(0.283736 4.29637 0.115252)
(0.283308 4.72315 0.0634008)
(0.301699 5.12312 0.0176539)
(0.301284 5.37908 0.0124752)
(0.354716 3.35858 -0.299556)
(0.3978 4.1648 -0.299724)
(0.424016 4.5877 -0.272024)
(0.42857 4.95044 -0.212384)
(0.42453 5.31265 -0.144819)
(0.421885 5.59044 -0.0809263)
(0.400168 5.66068 -0.1038)
(0.431418 2.75458 0.0316735)
(0.461848 3.71209 0.0773703)
(0.417449 4.21876 0.0497326)
(0.402164 4.6305 0.0194149)
(0.386424 5.03534 -0.010955)
(0.376679 5.39256 -0.0314075)
(0.366752 5.56865 -0.0685253)
(0.13567 4.35925 -0.435443)
(0.187969 4.82356 -0.371554)
(0.248238 5.15876 -0.307963)
(0.323153 5.46204 -0.216415)
(0.389993 5.75223 -0.13972)
(0.451898 5.91635 -0.0583127)
(0.491813 5.84608 0.00311938)
(0.255742 3.86329 -0.177052)
(0.316261 4.59369 -0.158869)
(0.297877 4.98744 -0.142228)
(0.296105 5.32057 -0.116572)
(0.308742 5.65905 -0.0943307)
(0.374116 5.90148 -0.0577244)
(0.397715 5.84263 -0.0717556)
(0.396063 3.30312 -0.101146)
(0.445774 4.14804 -0.0697322)
(0.43962 4.58886 -0.0792181)
(0.433885 4.96774 -0.0869803)
(0.426872 5.35586 -0.0688819)
(0.402276 5.63776 -0.0373316)
(0.397437 5.68757 -0.038957)
(0.313287 4.10632 0.343998)
(0.550655 4.73037 0.26776)
(0.463555 5.1182 0.216672)
(0.466482 5.46035 0.180717)
(0.420601 5.77933 0.130374)
(0.419007 5.96293 0.0653698)
(0.352872 5.88695 0.041866)
(-0.00302493 4.76551 0.0718817)
(-0.0183307 4.87765 0.032799)
(-0.0299591 4.9346 0.0380276)
(-0.0342011 4.96194 0.0197392)
(-0.0341401 4.98202 0.0102301)
(-0.0326012 4.99341 0.00322144)
(-0.0288949 4.99893 -0.000329416)
(-0.0147773 4.09575 -0.705528)
(0.0449595 4.74356 -0.311534)
(0.075323 4.94087 -0.183248)
(0.105812 5.01097 -0.139506)
(0.115034 5.07911 -0.0743054)
(0.1246 5.11914 -0.0269077)
(0.112738 5.10931 -0.00304585)
(-0.0820355 4.15286 -0.379785)
(-0.0107537 4.8154 -0.26872)
(0.0711022 5.00929 -0.088932)
(0.0866233 5.02261 -0.0175237)
(0.0950062 5.04918 0.0382037)
(0.0785157 5.07245 0.0695414)
(0.0282178 5.06154 0.0479157)
(-0.196473 4.08815 -0.641254)
(-0.208004 4.7023 -0.378699)
(-0.143155 4.90658 -0.156973)
(-0.0941677 4.94116 -0.0591592)
(-0.0439668 4.98535 0.0240689)
(0.00545507 5.02661 0.0613431)
(0.0246923 5.03904 0.079712)
(-0.0412585 3.9467 -0.213555)
(-0.0108533 4.74497 -0.190088)
(0.0340304 4.99927 -0.032755)
(0.0428201 5.04405 0.0122683)
(0.0382252 5.07807 0.0310258)
(0.030189 5.11096 0.0196911)
(0.0120423 5.11258 0.00772693)
(-0.0721081 3.97882 -0.32075)
(-0.0752689 4.72591 -0.206647)
(-0.0444586 4.98724 -0.0391197)
(-0.0260822 5.0388 0.0211186)
(0.00716855 5.07965 0.0560166)
(0.0369798 5.11715 0.0444797)
(0.0154116 5.12035 0.0265737)
(-0.0264912 3.81521 -0.133818)
(-0.0104527 4.6975 -0.139235)
(0.0238844 5.01196 -0.011416)
(0.0304048 5.07422 0.0285743)
(0.0230591 5.10907 0.0276329)
(0.0194116 5.13835 0.0142584)
(0.0142237 5.1369 0.0244729)
(-0.0505329 3.83348 -0.210818)
(-0.0604948 4.67137 -0.143055)
(-0.0371064 4.99314 -0.0111828)
(-0.0188896 5.05892 0.0264656)
(-0.00107778 5.09662 0.0390617)
(0.0169042 5.12454 0.0199957)
(0.0112077 5.12067 0.0203068)
(-0.021254 3.70564 -0.0933243)
(-0.0113726 4.64547 -0.0980505)
(0.0123512 5.0147 -0.0078454)
(0.0155067 5.10148 0.0170781)
(0.00881039 5.13762 0.0174856)
(0.00867507 5.16554 0.00522769)
(0.00828394 5.1623 0.015634)
(-0.0426572 3.72555 -0.146508)
(-0.0519261 4.62851 -0.111335)
(-0.0319404 5.00264 -0.00386215)
(-0.0160257 5.09246 0.0280674)
(-0.00617024 5.13136 0.0245048)
(0.00733741 5.15889 0.0102569)
(0.00820946 5.1551 0.0218287)
(-0.0170074 3.60933 -0.0698533)
(-0.011091 4.58512 -0.0741126)
(0.00546635 5.00652 -0.00863396)
(0.00753728 5.12138 0.0131096)
(0.000965007 5.15938 0.0105256)
(0.00404436 5.18685 0.000286825)
(0.00456676 5.18384 0.00965261)
(-0.0328125 3.62517 -0.104514)
(-0.0394465 4.57265 -0.0875601)
(-0.0258492 4.99578 -0.00384291)
(-0.014267 5.11353 0.0230481)
(-0.00843675 5.15408 0.0147036)
(0.00193411 5.18071 0.0025624)
(-0.000147173 5.17803 0.0169132)
(-0.012362 3.52612 -0.0528539)
(-0.00948025 4.52096 -0.0540791)
(0.00137383 4.9888 -0.00936909)
(0.00306853 5.13537 0.0103738)
(-0.00237828 5.17713 0.00590034)
(0.00141362 5.20437 -0.00206508)
(0.00129879 5.20091 0.00735738)
(-0.0226437 3.53852 -0.0752485)
(-0.0284348 4.51173 -0.0706304)
(-0.020128 4.97852 -0.00493909)
(-0.0118753 5.12916 0.0187494)
(-0.00863432 5.17322 0.00834197)
(-0.000736044 5.19905 -0.00235343)
(0.000126149 5.19703 0.0126939)
(-0.00807569 3.45936 -0.0372489)
(-0.00744951 4.45728 -0.0392392)
(-0.000915381 4.9634 -0.00852909)
(0.000535625 5.14551 0.00930882)
(-0.00374272 5.1929 0.0044577)
(0.000987243 5.22039 -0.0016288)
(0.00131753 5.21717 0.0073104)
(-0.0147532 3.46577 -0.0527598)
(-0.0203176 4.44829 -0.0541427)
(-0.0159806 4.95131 -0.00537539)
(-0.010296 5.13918 0.0159558)
(-0.00800461 5.18883 0.0051903)
(-0.000944201 5.21483 -0.00275965)
(-0.000633336 5.21262 0.0101601)
(-0.00562827 3.40745 -0.0278224)
(-0.00612621 4.39688 -0.0301048)
(-0.00258969 4.93096 -0.0083783)
(-0.00153676 5.15191 0.00756976)
(-0.00497787 5.20725 0.00305472)
(0.000749496 5.23502 -0.00176976)
(0.00159815 5.23233 0.00580032)
(-0.0102644 3.41041 -0.0378836)
(-0.0153483 4.38886 -0.0410877)
(-0.0136919 4.92025 -0.00610087)
(-0.00977884 5.14632 0.0129337)
(-0.00803976 5.20395 0.00314568)
(-0.00130014 5.23036 -0.00279535)
(-0.00161942 5.22845 0.00993206)
(-0.00409564 3.36847 -0.0205802)
(-0.0049975 4.34153 -0.0230356)
(-0.0037388 4.89375 -0.00812964)
(-0.00321893 5.15508 0.00618387)
(-0.00582146 5.2209 0.00232594)
(-7.78398e-05 5.24921 -0.00121667)
(-0.000379157 5.2469 0.00573716)
(-0.00782164 3.36862 -0.0280221)
(-0.0119529 4.33369 -0.0316113)
(-0.0121246 4.88411 -0.00704348)
(-0.00952095 5.14952 0.0101735)
(-0.00802639 5.21747 0.00142684)
(-0.00175568 5.24459 -0.00258407)
(-0.000189663 5.24322 0.00818868)
(-0.00297521 3.33903 -0.0155709)
(-0.00380712 4.29146 -0.0175837)
(-0.00418418 4.85333 -0.00740949)
(-0.00419301 5.15462 0.00523084)
(-0.00590537 5.23368 0.00209202)
(-0.000869507 5.26243 -0.000490504)
(0.000799262 5.2603 0.00575249)
(-0.00588724 3.33758 -0.0205928)
(-0.00951127 4.28373 -0.0240335)
(-0.0107267 4.84463 -0.00699862)
(-0.00957164 5.14906 0.00848488)
(-0.00819871 5.23011 0.00100601)
(-0.00220195 5.25826 -0.00159672)
(0.000352986 5.25727 0.007448)
(-0.00247502 3.31633 -0.0130169)
(-0.00304764 4.24703 -0.0144359)
(-0.00423827 4.81136 -0.00729994)
(-0.00482309 5.1506 0.00374266)
(-0.00581355 5.24618 0.00142757)
(-0.000194076 5.27594 -0.000416982)
(9.60423e-05 5.27389 0.0054361)
(-0.00474514 3.31435 -0.0161367)
(-0.00747511 4.2395 -0.0190828)
(-0.00952711 4.80366 -0.00728968)
(-0.00919643 5.14488 0.00633455)
(-0.0075834 5.24215 0.000317437)
(-0.00171149 5.2716 -0.00121533)
(-0.000241973 5.2702 0.00714729)
(-0.00214234 3.2979 -0.0106099)
(-0.00264713 4.20794 -0.0120043)
(-0.00439325 4.76899 -0.0071166)
(-0.0056182 5.14258 0.0026721)
(-0.00672889 5.25746 0.000692172)
(-0.00139843 5.28934 -0.000697505)
(-5.00859e-05 5.28763 0.00368916)
(-0.00404946 3.29632 -0.0133402)
(-0.00613278 4.20067 -0.0157256)
(-0.00876064 4.76238 -0.00762919)
(-0.00913166 5.13667 0.00418685)
(-0.00805708 5.25361 -0.000467269)
(-0.0023362 5.28498 -0.00155464)
(-0.000333498 5.28465 0.00551274)
(-0.00164631 3.28311 -0.00850658)
(-0.00207538 4.17396 -0.00948509)
(-0.00384935 4.72748 -0.00632163)
(-0.00563795 5.13031 0.00170815)
(-0.00636552 5.26764 0.000440313)
(-0.00146728 5.30137 -0.000727556)
(-6.83457e-05 5.29949 0.00318587)
(-0.00336184 3.28104 -0.0103521)
(-0.00506388 4.16609 -0.0124595)
(-0.0079655 4.72106 -0.007135)
(-0.00888519 5.12322 0.00303983)
(-0.00825559 5.26329 -0.000527764)
(-0.0035869 5.29699 -0.000746427)
(-0.000357957 5.29664 0.00498047)
(-0.00148946 3.27174 -0.00739762)
(-0.00191103 4.14464 -0.00822474)
(-0.0034774 4.68889 -0.00605307)
(-0.00575115 5.11466 0.000601711)
(-0.00640634 5.27696 -4.07565e-05)
(-0.00150971 5.31457 -0.000153568)
(0.000117466 5.31249 0.0034047)
(-0.00312628 3.26981 -0.00909017)
(-0.00449748 4.13699 -0.0108816)
(-0.00697935 4.68263 -0.00714755)
(-0.00853298 5.10682 0.0013784)
(-0.00795397 5.27269 -0.00111907)
(-0.00319802 5.30957 -0.000897186)
(-0.000500674 5.30932 0.00385028)
(-0.00136404 3.26225 -0.00626779)
(-0.0017008 4.11875 -0.007456)
(-0.00307432 4.65319 -0.00596521)
(-0.00549556 5.09504 -0.0005592)
(-0.00620468 5.28448 -0.000908572)
(-0.00135486 5.32625 -0.00176075)
(-0.000716084 5.32421 0.000451973)
(-0.00299937 3.26044 -0.00837412)
(-0.00394202 4.11131 -0.009891)
(-0.00609406 4.64701 -0.00734134)
(-0.00810018 5.08752 -0.00028379)
(-0.00802137 5.28045 -0.00181798)
(-0.00357731 5.32153 -0.00164468)
(-0.000527404 5.32168 0.00295932)
(-0.000819716 3.25466 -0.00407577)
(-0.00121295 4.09627 -0.00558353)
(-0.0023991 4.62105 -0.00459836)
(-0.00492868 5.07303 -0.00039396)
(-0.00597138 5.2909 -0.000404069)
(-0.00117509 5.33903 -0.00050312)
(-0.000711742 5.33713 0.00114917)
(-0.00216624 3.25262 -0.00667354)
(-0.00289339 4.08852 -0.00806985)
(-0.00469243 4.61432 -0.00673046)
(-0.00694651 5.06527 -0.000885105)
(-0.00725093 5.28664 -0.0021251)
(-0.00272169 5.33364 -0.00149935)
(-0.000971446 5.33361 0.0014847)
(-0.000485133 3.24756 -0.00349755)
(-0.000935296 4.07586 -0.00438902)
(-0.00182918 4.59153 -0.00375423)
(-0.00441938 5.0483 -0.000558301)
(-0.00588027 5.29487 -0.000114303)
(-0.00143986 5.35019 -0.000361613)
(-0.000829709 5.34869 0.00186187)
(-0.00129959 3.24592 -0.00485801)
(-0.00206083 4.06867 -0.00622203)
(-0.00359753 4.58493 -0.0053399)
(-0.00606918 5.04113 -0.000766208)
(-0.00708817 5.29113 -0.00131731)
(-0.00244071 5.34526 -0.000437933)
(-0.00152735 5.34599 0.00256558)
(-0.00065087 3.24162 -0.00504236)
(-0.000945827 4.05778 -0.00483113)
(-0.00154503 4.56498 -0.00418106)
(-0.00382718 5.02225 -0.00147345)
(-0.00544412 5.29712 -0.000580058)
(-0.000762176 5.36158 -0.000616842)
(-0.00118278 5.36023 0.00242367)
(-0.000891052 3.23968 -0.00451165)
(-0.00122409 4.05082 -0.00583876)
(-0.00256686 4.55819 -0.00505161)
(-0.00500114 5.01528 -0.00153117)
(-0.00641354 5.29328 -0.00130477)
(-0.0015902 5.35616 -0.000318345)
(-0.00160242 5.35693 0.00301762)
(-0.000718221 3.23586 -0.00501775)
(-0.000925897 4.04171 -0.0052132)
(-0.0014634 4.54092 -0.0046111)
(-0.00344247 4.9957 -0.0025036)
(-0.00534728 5.29741 -0.00141856)
(-0.000790201 5.3725 -0.00148979)
(-1.22746e-05 5.37218 0.00094482)
(-1.1543e-05 3.23467 -0.00540004)
(-0.00112368 4.03549 -0.00647695)
(-0.00142223 4.53457 -0.00576467)
(-0.00419818 4.98931 -0.00289945)
(-0.00604678 5.29386 -0.00210141)
(-0.00076371 5.36754 -0.000953184)
(-0.00184691 5.36924 0.00244008)
(-0.000139606 3.23061 -0.00243996)
(-0.000453723 4.02725 -0.00344088)
(-0.00100524 4.51891 -0.00331809)
(-0.00296517 4.9691 -0.00200068)
(-0.005192 5.29577 -0.00101375)
(-0.0010223 5.38326 -0.000931965)
(-0.000725947 5.38405 0.00235103)
(0.000341688 3.22954 -0.00466673)
(-0.000845676 4.02109 -0.00583519)
(-0.00107516 4.51245 -0.0054323)
(-0.00377973 4.96272 -0.00334668)
(-0.00591172 5.2919 -0.00235078)
(-0.000749457 5.37819 -0.00128644)
(-0.00150526 5.38067 0.00258968)
(0.000452244 3.22701 0.00148203)
(0.000189493 4.01469 1.56341e-05)
(-0.000495529 4.49912 -0.000521253)
(-0.00245585 4.94324 -6.89922e-05)
(-0.00524702 5.2922 0.000514599)
(-0.00167915 5.39335 -5.22273e-05)
(-0.00137431 5.39562 0.0024233)
(-0.000327888 3.22574 -0.00225584)
(-0.00120297 4.00837 -0.00360144)
(-0.00203841 4.49237 -0.00369391)
(-0.00398108 4.93671 -0.00236037)
(-0.00648952 5.28787 -0.00130629)
(-0.00197891 5.38857 -0.000392988)
(-0.00221897 5.39247 0.00324717)
(0.00031255 3.22482 0.00272118)
(0.000182236 4.0043 0.00156023)
(-0.000373072 4.48164 0.00100486)
(-0.00212822 4.91882 0.00124031)
(-0.00506831 5.28716 0.00195799)
(-0.00168879 5.40365 0.00183442)
(-0.000750166 5.40713 0.00558442)
(-0.00153582 3.22337 -0.000732571)
(-0.00234888 3.99807 -0.00180194)
(-0.00278658 4.47486 -0.00207809)
(-0.00421967 4.91225 -0.00123461)
(-0.00651954 5.28196 -0.000163268)
(-0.00241865 5.3985 0.00086449)
(-0.00136293 5.40317 0.00458212)
(-0.000498119 3.22265 -6.44193e-05)
(-0.000454327 3.99514 -0.000247639)
(-0.000978449 4.46586 -0.000226133)
(-0.00237549 4.89564 0.000364224)
(-0.00526598 5.28007 0.00148204)
(-0.00225428 5.41302 0.00183039)
(-0.00104343 5.41841 0.00451868)
(-0.00291086 3.22154 -0.00140034)
(-0.00332075 3.98969 -0.00189875)
(-0.00357331 4.45982 -0.00185904)
(-0.00465795 4.88983 -0.00103864)
(-0.00689355 5.27463 0.00027421)
(-0.00348932 5.40812 0.00161763)
(-0.00111678 5.41545 0.00493292)
(-0.00130415 3.22035 -0.00441399)
(-0.00108294 3.98664 -0.00359781)
(-0.00146855 4.4514 -0.00284076)
(-0.00251267 4.87401 -0.00172896)
(-0.00526594 5.27112 -0.000135229)
(-0.00287501 5.42198 0.000613088)
(-0.000536818 5.43016 0.00247987)
(-0.00312392 3.21902 -0.00366849)
(-0.00304817 3.98167 -0.00366359)
(-0.00333448 4.44585 -0.00317299)
(-0.00421685 4.86862 -0.0020997)
(-0.00651339 5.26519 -0.000372723)
(-0.00378291 5.41731 0.00133942)
(-0.00164696 5.42692 0.00420818)
(-0.00145686 3.21742 -0.00649988)
(-0.00140824 3.97838 -0.00582944)
(-0.00168327 4.4378 -0.00471139)
(-0.00246077 4.85374 -0.00334034)
(-0.00495169 5.26 -0.00153958)
(-0.00348678 5.42998 -0.000202736)
(-0.00214027 5.44114 0.00185724)
(-0.00240622 3.21637 -0.005937)
(-0.001984 3.97371 -0.00554744)
(-0.00245695 4.43261 -0.00471338)
(-0.00335783 4.84861 -0.00348496)
(-0.00589539 5.25426 -0.00157319)
(-0.004495 5.4259 0.000600304)
(-0.0013157 5.43835 0.00223343)
(-0.000667171 3.2159 -0.00457198)
(-0.000642388 3.97154 -0.00493038)
(-0.000710548 4.42596 -0.00451613)
(-0.000978775 4.83558 -0.00359219)
(-0.00289955 5.24744 -0.00206093)
(-0.00135989 5.43734 -0.00104985)
(0.00239195 5.45058 -0.00018411)
(-0.000956325 3.21328 -0.00507924)
(-0.000280813 3.96539 -0.00538112)
(-0.00135125 4.4197 -0.00472073)
(-0.00206343 4.82939 -0.00360047)
(-0.0046938 5.24092 -0.00179151)
(-0.00387364 5.43282 0.000214689)
(-0.000370695 5.44794 0.0010285)
(0.000460993 3.22479 -0.000753169)
(0.000897752 3.97362 -0.00148595)
(0.00124798 4.42275 -0.00161981)
(0.00128169 4.82589 -0.0014511)
(-2.20418e-05 5.24014 -0.00071949)
(0.00255627 5.45012 1.99537e-05)
(0.00442166 5.46754 0.00163171)
(0.00168532 3.21546 -0.00115781)
(0.00155622 3.9612 -0.00218722)
(0.00191425 4.41101 -0.00213691)
(0.00174345 4.8149 -0.00197497)
(-0.000503791 5.22947 -0.000971023)
(0.00141325 5.44271 0.000283216)
(0.00326646 5.45985 0.00101415)
(0.00151896 3.24483 -2.71997e-05)
(0.00251943 3.98522 -0.000410857)
(0.00384568 4.42881 -0.000673853)
(0.00516604 4.82522 -0.000756947)
(0.00513033 5.23839 9.36207e-05)
(0.0079525 5.4674 0.00156208)
(0.00891838 5.48703 0.00380292)
(0.00608295 3.22653 0.00577469)
(0.00729454 3.96602 0.00409582)
(0.00700645 4.41121 0.00307787)
(0.00763214 4.80904 0.00265319)
(0.00493835 5.22369 0.00313676)
(0.00679601 5.45641 0.00471892)
(0.0122491 5.47716 0.00697819)
(0.00128074 3.25812 -0.0144457)
(0.0020353 3.99708 -0.0125045)
(0.00457003 4.43732 -0.0104952)
(0.00769502 4.82832 -0.0087074)
(0.00822327 5.239 -0.00614677)
(0.0112039 5.48409 -0.00373119)
(0.0125117 5.51047 -0.000257343)
(0.0143462 3.24181 0.00452055)
(0.0185358 3.98101 0.00351407)
(0.017547 4.42203 0.00225614)
(0.0175583 4.81381 0.00153751)
(0.0140484 5.22579 0.00194762)
(0.0154938 5.47535 0.00318378)
(0.0128647 5.50169 0.00610463)
(0.00582525 3.26308 -0.0122563)
(0.00572403 4.00386 -0.0107258)
(0.0100029 4.44385 -0.0106964)
(0.0144135 4.83205 -0.0108714)
(0.0173281 5.24018 -0.0096224)
(0.0205105 5.50233 -0.00910147)
(0.0224448 5.53115 -0.00859555)
(0.0298729 3.24713 0.00769771)
(0.0346464 3.99019 0.00376489)
(0.0314994 4.42932 0.00134646)
(0.0304769 4.81621 4.69154e-05)
(0.0245824 5.22437 5.98009e-05)
(0.0247147 5.48975 0.00142707)
(0.022645 5.52194 0.0018934)
(0.0229349 3.24179 0.076253)
(0.0188138 4.00091 0.0479067)
(0.0213164 4.45012 0.035349)
(0.0256067 4.84408 0.0232175)
(0.0337797 5.25716 0.010983)
(0.0433084 5.5412 -0.000229284)
(0.0468115 5.57227 -0.00660992)
(0.0346141 3.2659 -0.000995547)
(0.0342349 4.01066 -0.00193391)
(0.0356815 4.44804 -0.0041057)
(0.0350546 4.83105 -0.00575456)
(0.0340113 5.23454 -0.00610519)
(0.0378797 5.51647 -0.00348927)
(0.0405027 5.54727 0.00164321)
(0.0522864 3.33052 0.277093)
(0.0483734 4.0819 0.204454)
(0.0432187 4.54555 0.159801)
(0.0505647 4.95144 0.121142)
(0.0669885 5.36807 0.0830539)
(0.0905776 5.65327 0.0479252)
(0.123484 5.68589 0.0254654)
(-0.313036 3.93899 0.143963)
(-0.343548 4.46652 0.160023)
(-0.270376 4.86226 0.114354)
(-0.171724 5.21817 0.0754675)
(-0.0542862 5.56403 0.0502063)
(0.0579216 5.77322 0.0281927)
(0.170166 5.76297 0.00145719)
(-0.0258147 3.35921 0.0615006)
(-0.0606121 4.07421 0.0604404)
(-0.0394846 4.50802 0.0490174)
(-0.0216741 4.89022 0.037233)
(0.00160864 5.28915 0.0264965)
(0.0340293 5.57747 0.0164791)
(0.0609782 5.61313 0.00915363)
(0.149301 4.64745 -0.080692)
(0.200169 4.87463 -0.120512)
(0.141392 4.90896 -0.0846923)
(0.0879043 4.93885 -0.0550232)
(0.0443074 4.97175 -0.0296942)
(0.0111675 4.99208 -0.00852826)
(-0.00663193 5.00116 0.00341847)
(-0.0123649 4.61987 -0.174834)
(-0.0222866 4.84927 -0.234021)
(-0.0162661 4.89868 -0.16229)
(-0.0115923 4.93307 -0.102434)
(-0.00770449 4.96397 -0.0560492)
(-0.00401354 4.98595 -0.0219144)
(-0.000483021 4.99744 -0.00333409)
(-0.160509 4.60967 -0.0822833)
(-0.218581 4.84251 -0.11294)
(-0.151566 4.89334 -0.0788652)
(-0.0962149 4.92994 -0.0501523)
(-0.0534552 4.9624 -0.0280613)
(-0.0222112 4.98512 -0.0119291)
(-0.00489867 4.99682 -0.0031324)
(-0.155639 4.61468 0.0836045)
(-0.212288 4.84728 0.112503)
(-0.147714 4.89683 0.0784548)
(-0.0939374 4.93208 0.0497114)
(-0.0522156 4.96345 0.0274086)
(-0.0215983 4.98553 0.0110627)
(-0.00475776 4.997 0.00185213)
(-0.0162009 4.62185 0.172814)
(-0.0255837 4.85068 0.231567)
(-0.0181909 4.89952 0.161196)
(-0.0128972 4.93338 0.101942)
(-0.0084593 4.96394 0.0559085)
(-0.00449343 4.98578 0.0217855)
(-0.00167608 4.99721 0.00265772)
(0.149907 4.64876 0.079398)
(0.201498 4.87594 0.118922)
(0.141748 4.90944 0.0835852)
(0.0883146 4.93969 0.054266)
(0.0448602 4.97244 0.0295536)
(0.0122254 4.99258 0.00879764)
(-0.00397232 5.00216 -0.00211119)
(-0.183323 4.08977 0.647257)
(-0.193415 4.70546 0.390731)
(-0.132916 4.90826 0.162811)
(-0.0827567 4.94165 0.0604082)
(-0.0352774 4.98479 -0.0254652)
(0.0139558 5.02592 -0.0631616)
(0.037355 5.03824 -0.0818914)
(-0.0798071 4.1479 0.386452)
(-0.00943138 4.81196 0.274456)
(0.0725106 5.00346 0.0906627)
(0.0893479 5.01995 0.016185)
(0.0975983 5.04718 -0.0395463)
(0.0828572 5.07168 -0.0681685)
(0.0233968 5.06204 -0.0482145)
(-0.0591118 3.97689 0.30428)
(-0.0664743 4.72315 0.205464)
(-0.0398287 4.98342 0.0375543)
(-0.0198944 5.03576 -0.0242467)
(0.0145967 5.07711 -0.060872)
(0.039587 5.11397 -0.0427942)
(0.0524217 5.12193 -0.0226019)
(-0.0227412 3.81434 0.124375)
(-0.0064604 4.69695 0.123313)
(0.027885 5.00922 0.00758648)
(0.0328792 5.07172 -0.0307482)
(0.0294632 5.10699 -0.0270363)
(0.0211543 5.13623 -0.0121843)
(0.0264548 5.13486 -0.00872799)
(-0.0124848 3.61041 0.0527294)
(-0.00626167 4.58683 0.053307)
(0.0101364 5.00554 -0.00163678)
(0.0114794 5.11899 -0.0250198)
(0.00816934 5.1571 -0.0106964)
(0.00663544 5.18468 -0.00182778)
(0.012855 5.18151 -0.00524328)
(-0.00576543 3.46664 0.0252783)
(-0.00485611 4.46262 0.0291609)
(0.0021078 4.96629 -0.000949127)
(0.0030507 5.14526 -0.0169132)
(0.000735599 5.1919 -0.00390237)
(0.0030159 5.21925 0.000471552)
(0.00676812 5.21632 -0.00478509)
(-0.00220444 3.37797 0.0126694)
(-0.00280697 4.34859 0.0153642)
(-0.000849428 4.89969 0.000484454)
(-0.000657989 5.15666 -0.0105927)
(-0.00261806 5.22039 0.000184547)
(0.00153682 5.24827 0.00182769)
(0.00413876 5.24602 -0.00237711)
(-0.0010424 3.32447 0.00733989)
(-0.00135374 4.25421 0.00890121)
(-0.00182277 4.81872 0.00153827)
(-0.00272677 5.15344 -0.00599932)
(-0.00362729 5.24529 0.00242062)
(0.000892484 5.2744 0.00240836)
(0.00244727 5.27227 -0.000353677)
(-0.000443277 3.29155 0.00358315)
(-0.000559902 4.18177 0.00450979)
(-0.0016621 4.73631 0.00116991)
(-0.00365952 5.13556 -0.00334878)
(-0.00443863 5.26719 0.00284294)
(0.000189637 5.30002 0.00168575)
(0.00204681 5.29817 -0.000514697)
(-0.00029318 3.27179 0.00100557)
(-0.000180696 4.12768 0.00170859)
(-0.00131884 4.66306 0.000442269)
(-0.00393389 5.10319 -0.00196478)
(-0.00503367 5.28536 0.00200158)
(0.000222846 5.3251 0.000672542)
(0.000326581 5.32294 -0.001571)
(-0.000744312 3.25606 0.0035775)
(-0.000396195 4.08515 0.00346819)
(-0.00132721 4.60172 0.00242463)
(-0.00349814 5.05871 0.000299808)
(-0.00520562 5.2972 0.00279784)
(-0.000859024 5.34909 0.000922049)
(0.00118475 5.34807 -0.000632369)
(0.000347737 3.24336 -0.000189502)
(0.000212079 4.04981 0.000385169)
(-0.000297288 4.55017 0.000335803)
(-0.00259367 5.00643 -0.000532697)
(-0.00471382 5.30087 0.001398)
(-0.000205998 5.37126 -0.000525609)
(0.00117902 5.37111 -0.00129404)
(-0.000858608 3.23726 0.00441987)
(-0.000855136 4.02485 0.0039544)
(-0.000937026 4.50997 0.00331029)
(-0.00276787 4.95569 0.00219364)
(-0.00476878 5.29839 0.00280965)
(-0.00133488 5.39356 8.75383e-05)
(0.00196841 5.39506 -0.0010369)
(-0.000212992 3.22743 0.00330694)
(-0.000409137 4.00196 0.00397798)
(-0.000559237 4.47428 0.00410156)
(-0.0015721 4.90631 0.00377729)
(-0.00400829 5.28639 0.00431988)
(-0.00141721 5.41278 0.00208935)
(-0.000457398 5.41763 0.00156071)