/*--------------------------------*- C++ -*----------------------------------*\
  =========                 |
  \\      /  F ield         | OpenFOAM: The Open Source CFD Toolbox
   \\    /   O peration     | Website:  https://openfoam.org
    \\  /    A nd           | Version:  12
     \\/     M anipulation  |
\*---------------------------------------------------------------------------*/
FoamFile
{
    format      ascii;
    class       volScalarField;
    location    "11000";
    object      omega;
}
// * * * * * * * * * * * * * * * * * * * * * * * * * * * * * * * * * * * * * //

dimensions      [0 0 -1 0 0 0 0];

internalField   nonuniform List<scalar> 
24749
(
14547.6
7693.82
7245.33
7222.17
7220.47
7219.97
7219.71
16562.8
6800.81
4783
4461.93
4406.89
4395.82
4394.11
15717
5908.59
3241.28
2768.34
2720.1
2718.15
2716.68
15004.7
5804.49
2756.59
2015.11
1941.54
1939.53
1937.44
14486.3
6042.7
2825.55
1644.54
1508.59
1503.9
1501.88
14143.6
6251.51
3121.79
1505.42
1238.55
1226.76
1224.56
13950.2
6270.98
3326.76
1531.41
1063.42
1035.61
1033.09
13838.7
6167.38
3381.25
1643.6
953.306
896.415
893.273
13767.7
6026.2
3308.18
1788.09
897.899
791.314
786.822
13727.3
5879.35
3238.01
1913.81
895.26
710.498
703.074
13681.5
5749.52
3197.28
2004.07
938.103
648.92
635.681
13655.6
5636.38
3152.33
2050.38
1009.7
603.93
580.251
13636.3
5542.03
3103.14
2053.4
1092.9
575.398
534.084
13597.1
5467.28
3058.31
2032.09
1181.49
565.083
495.285
13589.2
5393.96
3006.15
2011.63
1261.19
572.024
462.357
13642.9
5330.07
2951.32
1988.95
1316.99
592.681
434.511
13700.2
5295.04
2910.18
1965.58
1351.99
623.702
411.403
14543.7
5129.19
2792.8
1878.28
1308.91
647.882
394.712
15057.9
5227.21
2757.7
1808.16
1226.19
627.071
401.678
14805.6
5379.33
2862.11
1888.39
1309.74
650.615
395.322
16274.9
4720.8
2554.9
1689.78
1141.59
625.666
411.522
16671.1
5067.54
2684.68
1738.89
1156.85
667.381
430.49
15200.3
5249.93
2835.39
1849.49
1236.97
728.738
448.809
13473.5
5548.43
3094.57
2022.38
1367.09
842.584
502.573
14182.3
5891.8
3200.15
2057.51
1383.83
814.376
463.492
11587.8
6204.86
3433.87
2255.21
1545.8
992.716
591.325
12614.5
6260.83
3457.97
2213.98
1490.88
921.992
535.941
9906.01
6815.22
3759.28
2475.62
1719.31
1140.1
691.33
10983.7
6649.17
3741.88
2404.88
1635.43
1053.39
619.62
9019.61
7211.53
3932.93
2571.32
1799.6
1223.13
763.324
9805.96
6893.15
3976.38
2577.22
1763.75
1169.87
699.143
8877.87
7201.71
3969.98
2564.65
1799.38
1227.44
767.726
9439.5
6962.73
4053.94
2608.96
1784.54
1199
736.654
9270.49
6904.64
3831.56
2501.96
1753.03
1190.46
741.082
9481.9
6888.92
4016.37
2587.38
1776.91
1191.68
732.807
10254.4
6559.27
3619.31
2383.03
1658.67
1104
660.534
10035.4
6719.39
3837.93
2482.35
1703.63
1135.64
686.288
11655.6
6180.36
3431.18
2244.01
1536.66
990.367
584.54
11038.6
6665.39
3743.75
2393.95
1623.13
1050.33
615.615
13554.1
5453.73
3017.56
1982.49
1350.46
829.425
493.46
12496
6333.62
3498.37
2228.45
1499.66
929.842
537.298
15551.4
4807.92
2639.45
1753.61
1199.66
701.52
433.941
14988.9
5408.68
2864.56
1871.61
1290.13
700.317
413.848
13840.8
5668.41
3032.91
1971.91
1345.65
781.875
446.378
15973.2
5813.52
3009.98
1928.35
1285.6
713.005
421.899
14544.6
7695.32
7245.58
7222.22
7220.49
7219.98
7219.66
16567.5
6803.3
4775.47
4451.54
4396.84
4385.16
4377.55
16247.6
6063.52
3767.55
3410.71
3370.72
3366.69
3362.15
16462.5
6535.61
4271.94
3883.25
3830.26
3822.11
3815.13
15763.6
5922.45
3227.66
2754.49
2707.77
2705.41
2700.41
16033.3
6191.79
3536.47
3055.7
3003.41
3000.12
2995.76
15353.6
5859.87
2912.88
2315.37
2256.48
2254.43
2249.76
15545.7
6036.86
3105.95
2521.12
2460.56
2458.5
2453.05
15039
5831.7
2769.72
2010.14
1932.85
1930.16
1925.61
15175.3
5917.84
2864.65
2155.36
2081.65
2079.22
2074.02
14758.8
5929.85
2763.4
1795.99
1690.74
1686.77
1682.76
14868.9
5925.32
2787.09
1900.16
1803.73
1800.22
1795.59
14509.8
6080.25
2856.78
1650.36
1503.8
1497.5
1493.87
14601.1
6041.56
2833.39
1723.73
1592.01
1586.63
1582.62
14303.9
6209.53
3011.15
1562.5
1356.17
1346.11
1342.68
14372.1
6170.94
2959.95
1608.86
1426.34
1417.86
1414.16
14146.8
6288.52
3155.36
1526.38
1238.19
1222.38
1219
14194.5
6263.82
3104
1547.44
1294.53
1281.3
1277.8
14032.7
6314.72
3269.18
1529.71
1143.55
1119.49
1116.04
14063.3
6305.94
3229.13
1530.95
1188.77
1168.68
1165.2
13949.8
6295.92
3348.28
1562.18
1068.06
1032.69
1029.09
13969.3
6302.63
3322.28
1549.1
1104.08
1074.33
1070.75
13888.3
6247.32
3388.13
1614.04
1008.59
958.598
954.6
13901.2
6264.32
3378.67
1591.53
1036.83
994.235
990.395
13839.3
6182.7
3389.08
1678.52
963.969
894.755
890.239
13849.6
6204.92
3396.27
1650.18
984.843
925.526
921.258
13799.4
6110.97
3356.27
1749.88
933.263
839.326
834.001
13806.8
6135.29
3377.18
1718.99
947.231
866.087
861.174
13768.9
6036.34
3310.62
1822.6
916.39
790.944
784.461
13773.9
6060.99
3333.69
1789.86
923.316
814.319
808.438
13743.7
5959.32
3273.48
1885.86
912.376
748.593
740.5
13747.5
5984.85
3290.4
1857.07
913.051
769.08
761.839
13723
5883.26
3247.57
1940.98
920.356
711.524
701.253
13725.5
5907.76
3258.86
1915.85
915.119
729.44
720.329
13703.6
5812.86
3225.9
1987.06
939.295
679.324
666.019
13706.4
5835.53
3235.54
1966.45
928.919
694.889
683.168
13686
5748.38
3203.71
2022.38
966.873
651.525
634.22
13688.1
5769.16
3213.74
2007.05
952.54
664.968
649.723
13668.8
5690.73
3180.79
2046.61
1000.88
627.974
605.404
13672
5709.62
3191.31
2036.7
983.84
639.373
619.475
13652.2
5638.07
3156.83
2059.81
1039.28
608.629
579.161
13655.5
5655.16
3167.67
2055.12
1020.46
617.93
591.981
13640.3
5587.53
3131.78
2062.42
1079.92
593.558
555.202
13641.8
5602.33
3142.22
2062.3
1060.1
600.602
566.9
13634.5
5541.16
3106.3
2055.72
1121.25
582.565
533.238
13633.8
5552.88
3115.68
2058.86
1100.89
587.318
543.94
13631.2
5500.79
3081.39
2044.15
1163.77
576.125
513.092
13630
5508.89
3089.95
2048.97
1142.92
578.47
522.902
13626.2
5464.07
3056.58
2032.18
1208.24
574.726
494.639
13625.5
5472.51
3065.73
2036.64
1186.51
574.582
503.633
13617.9
5430.52
3031.62
2023.32
1248.34
578.583
477.799
13618.7
5440.28
3041.6
2026.79
1229.06
576.053
486.036
13609.8
5398.92
3007.04
2014.92
1283.17
586.434
462.279
13608.8
5410.29
3018.17
2018.95
1267.05
582.484
469.971
13623.1
5363.33
2980.12
2004.87
1311.67
596.277
447.909
13607.9
5376.54
2992.65
2009.68
1298.47
591.126
454.96
13661.7
5326.24
2950.85
1991.49
1333.16
608.91
434.857
13628.9
5345.05
2966.68
1999.39
1324.49
602.623
441.28
13684.3
5309.3
2928.26
1978.33
1349.56
625.674
423.54
13661.4
5337.56
2947.73
1989.05
1345.3
618.544
429.378
13665.2
5307.46
2915.46
1966.81
1360.19
645.451
414.285
13660.8
5358.22
2941.46
1981.45
1362.15
639.204
419.59
13610.8
5331.03
2913.44
1958.64
1363.67
659.698
405.021
13661.4
5350.85
2926.27
1967.66
1368.64
655.74
409.865
13931.7
5320.49
2890.14
1929.73
1332.24
673.714
400.404
15139.1
4858.5
2710.5
1813.2
1235.45
678.523
412.602
13809
5220.62
2864.66
1924.92
1338.64
670.417
403.99
13928.2
7943.34
7407.71
7360.36
7354.45
7352.73
7352.14
13811.6
7992.23
7448.07
7393.97
7386.83
7385.37
7384.98
13702.2
8029.96
7500.53
7448
7440.87
7439.37
7438.97
13768.9
8006.1
7466.36
7413.23
7406.13
7404.64
7404.24
13838.6
7982.36
7433.85
7379.71
7372.65
7371.23
7370.85
13912.1
7950.46
7418.93
7372.11
7366.36
7364.68
7364.14
16448.1
6549.12
4290.88
3900.65
3846.22
3838.5
3837.65
16210.7
6059.63
3780.75
3423.97
3383.11
3379.57
3379.31
15992.5
6190.2
3556.79
3072.74
3018.36
3015.85
3015.8
15311.3
5837.24
2913.34
2325.3
2266.84
2265.33
2263.46
14725
5897.51
2740.41
1796.03
1697.63
1694.6
1692.64
14293.4
6169.66
2973.34
1549.3
1358.82
1351.44
1349.37
14033.2
6282.43
3241.83
1503.13
1141.53
1123.1
1120.74
13886.7
6229.18
3373.57
1581.04
1001.23
960.882
958.102
13798.4
6097.69
3353.82
1713.21
918.699
840.354
836.679
13745.6
5952.48
3266.91
1855.34
890.468
748.292
742.57
13705.6
5811.71
3216.54
1963.81
911.675
677.504
667.648
13665.9
5690.68
3175.91
2033.08
971.647
624.44
606.671
13648.3
5586.51
3127.39
2056.51
1050.43
587.434
556.133
13616.7
5503.87
3080.89
2044.01
1136.52
567.99
513.877
13587.2
5430.35
3032.97
2021.41
1224.23
566.697
478.175
13610.1
5359.76
2978.47
2001.12
1292.22
580.874
447.822
13664.3
5313.17
2929.71
1978
1337.52
607.408
422.423
14005.8
5210.1
2861.52
1932.47
1345.74
639.919
401.759
17297.7
6811.38
5978.33
5948.91
5946.07
5946.51
5952.16
15746
6683.27
6002.53
5970.56
5980.19
5990.48
6003.72
13943.5
7926.02
7366.02
7312.78
7305.99
7304.57
7304.1
15582.2
6756.96
6117.82
6085.52
6093.44
6103.2
6116.23
13713.9
8024.98
7496.35
7444.22
7437.13
7435.62
7435.17
15715.5
6691.51
6026.39
5992.54
6000.52
6010.67
6021.13
15486.9
6782.19
6153.68
6122.56
6130.79
6140.55
6148.77
13742.4
8018.71
7482.31
7428.25
7421.02
7419.52
7419.09
13789.5
7997.91
7457.83
7405.02
7397.95
7396.46
7396.01
13929.5
7930.44
7375.01
7322.34
7315.62
7314.2
7313.74
17279.8
6812.41
5986.13
5957.02
5954.12
5954.98
5964.97
15507.1
6017.89
3112.21
2533.41
2473.04
2471.61
2469.63
14838.4
5888.93
2764.75
1901.45
1811.65
1809.19
1806.99
14362.3
6124.75
2919.38
1596.37
1429.84
1423.78
1421.6
14067.7
6270.49
3196
1505.37
1187.73
1172.69
1170.37
13905.7
6243.91
3359.83
1558.29
1030.65
996.833
994.199
13811
6121.19
3371.96
1681.05
934.249
867.412
864.036
13751.2
5978.88
3285.04
1823.69
892.262
769.057
764.049
13713.5
5836.08
3225.74
1940.54
902.049
693.435
684.895
13670
5711.83
3185.63
2020.4
954.29
636.214
620.822
13649.8
5604.59
3138.04
2054.43
1029.81
595.147
567.921
13624.4
5520.89
3091.83
2049.82
1115.91
571.588
523.821
13589.8
5443.8
3044.05
2026.06
1203.67
565.376
486.571
13596.2
5369.26
2989.44
2005.02
1276.98
575.903
454.944
13652.9
5319.92
2940.11
1983.61
1328.67
599.825
428.358
13792.6
5255.51
2887.59
1950.72
1351.69
633.284
406.386
15476.1
6776.84
6142.76
6110.53
6118.79
6128.67
6140.81
14194.7
6221.23
3063.95
1527.85
1295.76
1286.18
1283.95
13975.7
6274.43
3296.08
1518.85
1100.53
1077.58
1075.14
13852.4
6188.75
3384.69
1614.61
975.56
927.484
924.544
13776.6
6050.55
3331.24
1753.37
906.293
814.983
810.951
13732.2
5905.96
3249.68
1886.03
890.944
728.722
722.261
13689.9
5772.55
3206.37
1986.1
924.156
662.779
651.274
13658.5
5655.85
3162.2
2042.88
990.053
613.637
593.144
13640.5
5558.76
3114.11
2056.12
1072.21
581.066
544.898
13604.2
5483.31
3069.39
2038.44
1160.28
566.423
504.447
13586
5405.25
3017.16
2015.68
1243.2
568.727
470.127
13622
5340.13
2963.38
1994.57
1305.38
586.445
441.053
13675.4
5302.19
2918.73
1971.32
1345.82
615.68
416.782
14219.7
5236.28
2852.2
1920.17
1343.18
649.238
397.855
14576.4
5998.88
2800.91
1718.63
1597.7
1593.81
1591.66
15140.8
5884.63
2852.26
2162.07
2091.83
2090.23
2087.88
15741.5
6692.42
6017.27
5985.91
5995.52
6005.48
6013.39
15629.7
6732.19
6080.55
6047.65
6055.64
6065.35
6075.13
15506.2
6760.51
6118.49
6085.8
6094.06
6103.82
6112.36
15544.2
6747.8
6101.87
6069.73
6078.04
6088.13
6102.38
15739.9
6688.61
6023.23
5989.57
5997.47
6007.63
6020.75
15815.1
6490.48
3751.83
3105.13
3003.37
2992.44
2990.11
16474.7
6670.72
5159.38
4970.09
4953.72
4957.66
4961.79
13928.1
6411.37
3292.23
1767.28
1449.94
1423.37
1420.42
14733.2
6266.06
3198.69
2255.08
2096.82
2080.84
2078.24
13712.5
6368.84
3402.91
1716.04
1216.51
1173.96
1170.61
13635.7
6217.4
3396.8
1778.59
1071.81
999.174
994.783
13610.3
6036.2
3322.22
1891.85
997.425
871.351
864.783
13597.2
5863.13
3272.21
1994.09
984.395
775.817
764.84
13603.9
5712
3217.25
2057.39
1016.04
704.162
685.746
13568
5602.62
3164.61
2081.24
1078.58
653.74
621.92
13574.8
5498.56
3103.54
2065.28
1150.62
621.559
569.239
13555.9
5423.86
3046.45
2039.73
1229.78
608.212
525.572
13506.9
5371.29
3000.4
2024.84
1302.91
617.154
489.485
13523.6
5315.62
2950.48
2003.05
1352.58
640.32
459.483
13602.5
5252.47
2895.29
1969.31
1375.35
668.635
434.534
13585.2
5301.55
2893.29
1954.81
1392.51
708.44
415.951
16322.7
6765.97
5367.98
5189.35
5174.08
5178.59
5187
14113.1
6379.07
3224.08
1863.59
1613.94
1591.93
1589
14010.3
6362.22
3236.09
1799.55
1526.35
1502.93
1499.68
18120.8
7668.61
5652.6
5267.56
5183.88
5162.09
5156.15
14589
5134.38
2779.85
1845.8
1284.64
702.886
410.722
16341
6788.58
5398.25
5220.47
5204.83
5209.07
5214.72
16310.8
6159.08
4639
4494.5
4491.2
4501.11
4516.03
13798.6
6407.92
3357.46
1722.12
1319.99
1286.83
1283.75
13742.6
6377.57
3377.17
1712.83
1265.37
1227.89
1224.57
12869.7
5571.82
3117.24
2053.88
1401.87
860.387
502.575
11800.6
5826.7
3281.27
2178.1
1502.45
961.961
566.321
12216.7
6145.7
3404.73
2195.8
1487.57
915.474
528.889
10949.2
6097.72
3444.38
2298.91
1595.43
1051.58
621.123
11321.7
6313.4
3568.64
2323.32
1585.86
1017.64
595.226
10687
6167.43
3467.81
2310.04
1609.16
1077.69
646.517
10798.5
6492.27
3700.16
2400.78
1645.16
1074.19
640.039
10740
6091.64
3448.18
2290.13
1605.38
1072.45
648.643
10779.2
6439.53
3648.3
2363.04
1619.75
1072
648.297
11141.8
5900.18
3350.05
2236.74
1556.62
1034.67
616.538
10919.5
6327.08
3630.27
2358.95
1622.1
1066.02
638.178
11829
5886.83
3305.01
2175
1496.14
964.889
567.283
11416.3
6235.9
3512.07
2278.54
1558.45
1014.32
597.151
12882.6
5618.44
3125.59
2053.21
1403.24
863.964
503.351
12165.5
6380.41
3546.9
2258
1520.91
948.682
546.409
16528.2
6775.37
5286.73
5086.45
5066.14
5069.46
5077.87
16574.6
6126.79
4468.26
4309.14
4303.69
4313.09
4322.57
16640.7
6827.3
4397.29
3905.81
3826.27
3816.72
3820
15840
6502.63
3731.91
3075.44
2969.45
2959.13
2956.9
16293.7
6509.42
3929.46
3408.37
3328.31
3319.28
3318.72
15157.1
6336.38
3369.99
2572.12
2437.31
2423.47
2420.32
15487.5
6277.04
3465.01
2785.36
2675.79
2663.73
2660.15
14726.1
6311.31
3203.63
2235.05
2069.44
2052.87
2049.5
14947.2
6180.95
3193.57
2368.1
2235.26
2221.42
2217.92
14388.4
6367.8
3191.88
2008.66
1800.67
1780.77
1777.24
14555.7
6242.9
3129.28
2092.41
1922.9
1906.35
1902.65
14104.2
6445.15
3257.96
1865.89
1597.19
1572.2
1568.68
14234.1
6362.23
3191.46
1917.97
1691.36
1669.94
1666.31
13882.7
6492.56
3340.9
1786.84
1439.24
1407.03
1403.26
13975.1
6455.19
3286.92
1814.63
1513.37
1485.2
1481.44
13740.4
6488.28
3409.9
1756.34
1315.12
1273.18
1268.97
13795.8
6483.49
3370.7
1763.71
1373.66
1336.86
1332.76
13657.8
6434.7
3447.27
1758.91
1216.89
1162.71
1158
13687.5
6452.51
3426.21
1751.48
1262.98
1215.48
1210.92
13612.8
6351.99
3448.84
1785.53
1139.98
1070.15
1064.86
13626.7
6383.32
3447.07
1767.86
1175.71
1114.52
1109.46
13593.9
6254.83
3418.92
1829.28
1081.79
991.65
985.532
13595.5
6293.27
3432.45
1804.98
1108.37
1029.4
1023.64
13588.1
6152.53
3376.33
1883.87
1040.62
924.447
917.172
13585.7
6193.43
3393.08
1854.93
1058.45
956.796
950.076
13582.9
6050.21
3341.47
1936.88
1016.2
866.59
857.73
13581
6092.73
3354.07
1909.42
1025.97
894.499
886.427
13585.1
5950.87
3314
1986.21
1006.7
816.597
805.501
13579.4
5991.77
3324.26
1961.16
1009
840.691
830.759
13589.4
5859.52
3286.1
2027.44
1009.66
773.313
759.286
13583.5
5896.66
3296.62
2006.45
1005.62
794.051
781.643
13588
5778.11
3257.13
2059.41
1024.2
736.082
718.173
13584.8
5812.04
3269.33
2044.02
1015.39
753.973
738.127
13586.5
5705.49
3227.16
2080.87
1047.14
704.371
681.376
13581.6
5735.51
3241.08
2071.37
1034.94
719.621
699.262
13587.2
5640.27
3194.96
2090.73
1075.52
677.658
648.26
13581.2
5667.22
3210.7
2087.44
1061.44
690.607
664.397
13583.7
5582.7
3163.42
2090.17
1107.3
655.777
618.347
13580.1
5607.36
3179.02
2092.3
1092.41
666.517
632.99
13567.8
5536.78
3135.23
2082.9
1142.23
638.997
591.219
13570.8
5560.26
3150.6
2088.58
1126.68
647.484
604.552
13550.6
5494.71
3107.34
2071.8
1180.55
627.437
566.571
13555.5
5514.55
3121.79
2078.13
1162.79
632.991
578.651
13547.9
5454.09
3078.42
2060.32
1221.7
620.839
544.073
13548.6
5465.04
3089.94
2064.19
1200.8
623.057
554.996
13555.2
5419.42
3048.59
2049.6
1261.43
618.748
523.501
13551.6
5420.37
3057.38
2051.79
1240.16
617.607
533.346
13559.2
5387.06
3018.49
2038.28
1295.36
621.309
504.701
13555.3
5388.16
3027.57
2040.95
1277.17
618.003
513.69
13553.7
5357.18
2991.31
2028.04
1324.93
628.647
487.626
13552.1
5364.62
3001.97
2031.99
1310.04
623.701
495.86
13540.8
5331.68
2967.96
2017.71
1350.07
640.259
472.255
13540.6
5342.28
2979.11
2022.82
1338.54
634.294
479.803
13534.5
5307.74
2946.47
2006.87
1370.27
653.826
458.158
13529.3
5320.59
2958.26
2012.77
1361.45
647.572
465.159
13564.7
5273.96
2920.8
1991.9
1382.79
667.861
445.259
13532.2
5291.24
2935.65
2000.73
1378.61
661.474
451.575
13667.4
5230.82
2887.64
1969.17
1384.77
681.658
433.904
13567.5
5272.74
2916.55
1987.75
1390.65
677.34
439.639
13665.6
5239.55
2873.61
1952.15
1380.23
699.219
426.81
13616.8
5338.26
2922.77
1980.28
1398.44
700.257
432.377
13592.8
5280.5
2890.7
1949.04
1377.95
719.606
423.58
13581.2
5445.91
2956.21
1982.52
1401.63
725.28
429.146
16422.8
6794.89
5374.54
5191.56
5174.4
5178.08
5186.75
16388.9
6171.57
4647.18
4501.9
4497.6
4507.05
4521.21
16509.4
6767.46
5278.82
5078.93
5058.93
5062.35
5069.22
16479.3
6174.15
4586.7
4431.88
4425.75
4435.03
4451.33
16369
6752.68
5327.48
5145.68
5129.86
5134.34
5143.91
16339.2
6753.32
5338.59
5157.66
5142.09
5146.49
5152.17
16309.2
6154.21
4606.69
4459.39
4456.09
4465.72
4471.43
16325.9
6147.12
4586.44
4437.9
4434.34
4443.87
4450.13
16445.1
6776.5
5329.36
5142.57
5125.03
5128.6
5134.63
16503.4
6172.98
4566.97
4409.93
4403.43
4411.96
4412.82
18100
7669.71
5663.69
5280.94
5197.76
5176.67
5173.79
13926.8
5310.3
2959.23
1952.04
1331.26
780.441
454.405
13131
5989.27
3291.72
2123.26
1439.58
844.738
477.483
13852.1
5826.77
3166.65
2051.58
1406.66
796.59
444.471
15159.5
6326.92
3392.4
2602.33
2468.99
2454.82
2452.25
15476.8
6292.11
3501.18
2820.86
2711.49
2698.63
2694.78
14958.3
6145.58
3202.17
2394.43
2266.07
2252.25
2248.85
14378.7
6315.65
3174.12
2019.97
1823.15
1804.58
1801.9
14236.2
6294.7
3162.54
1921.81
1710.98
1691.64
1688.36
16450.7
6442.68
4611.25
4375.81
4349.17
4347.25
4351.59
16434.3
6451.55
4636.03
4401.59
4374.42
4372.33
4377.23
13600.1
5980.65
3304.55
1919.08
988.586
844.874
837.368
13601.1
5946.73
3295.29
1946.28
984.046
820.148
811.746
14552.1
6200.77
3124.98
2111.4
1949.16
1932.97
1929.72
13593.3
5892.09
3279.37
1969.78
981.566
797.077
787.516
13664.8
6301.42
3416.9
1738.28
1134.87
1079.38
1075.62
13618.4
6127.57
3357.99
1832.92
1025.97
930.484
925.24
13677.9
6325.89
3410.24
1723.76
1173.42
1124.73
1121.07
13602.6
5783.08
3246.46
2031.29
995.658
737.309
723.056
13586.8
5653.96
3190.6
2073.97
1044.43
676.373
652.221
13568.2
5547.91
3134.6
2077.45
1114.57
635.553
594.344
13573.6
5455.73
3073.15
2050.12
1187.95
611.964
546.349
13526.1
5399.59
3023.68
2032.36
1268.97
610.179
506.69
13507.6
5342.01
2975.46
2015.32
1331.14
627.581
473.782
13555.1
5285.9
2923.57
1987.71
1367.4
654.504
446.443
13562.3
5277.14
2890.65
1961.03
1385.47
689.103
424.965
13853.2
6389.32
3313.64
1733.72
1381
1351.81
1348.67
14352.2
5081.31
2783.2
1880.42
1334.18
706.688
408.729
16470.6
6667.02
5136.83
4942.62
4925.47
4929.6
4937.17
16300.4
6565.27
3981.43
3450.96
3368.11
3358
3357.63
13503.3
5878.15
3197.44
2067.78
1415.72
827.371
469.349
13855.8
5228.82
2871.73
1900.41
1308.23
758.78
444.545
16649
6815.36
4404.45
3924.64
3848.82
3840.88
3844.51
16370
6155.53
4584.77
4434.35
4429.98
4439.12
4444.56
14242.2
5542.89
2954.25
1942.77
1366.04
743.107
415.207
13146.7
5630.45
3046.78
2010.17
1415.87
758.178
424.892
13652.3
5230.12
2905.7
1936.47
1345.64
744.699
429.161
13580.7
5520.96
2979.45
1979.57
1397.35
742.607
426.093
13592.5
5809.86
3256.05
2012.44
987.515
755.669
743.269
16481.1
6119.94
4449.87
4286.7
4281.5
4291.22
4300.71
13678.2
5163.71
2860.02
1928.26
1366.09
716.244
413.031
13567.5
5250.66
2878.68
1951.22
1385.83
696.696
420.093
13560.1
5266.31
2909.6
1978.93
1373
661.611
440.382
13512.4
5310.03
2956.1
2005.8
1340.78
632.229
466.259
13511.2
5386.64
3013.33
2028.99
1287.8
613.977
498.022
13555.7
5441.48
3061.76
2045.79
1211.86
610.737
535.876
13590.6
5286.76
2900.94
1968.07
1383.36
680.76
430.17
13530.9
5284.69
2931.61
1992.66
1359.08
646.279
452.721
13506.4
5345.09
2983.99
2018.2
1316.98
621.25
481.325
13533.2
5419.47
3039.1
2037.78
1252.33
610.376
516.148
13566.9
5469.64
3086.59
2057.21
1170.73
616.266
557.543
13562.1
5565.71
3147.16
2079.92
1097.01
644.025
607.757
13588.3
5676.79
3203.85
2068.19
1031.34
690.129
668.592
13570.1
5624.18
3178.15
2079.98
1062.93
664.96
636.728
13566
5511.84
3116.04
2070.86
1132.76
627.67
581.445
13607.3
6072.47
3336.86
1862.91
1009.89
899.927
893.951
13641
6248.81
3406.89
1757.12
1101.36
1037.76
1033.6
13617.6
6163.97
3376.24
1806.4
1047.18
963.645
958.714
13595.6
5737.72
3229.85
2045.42
1004.94
720.113
703.873
13510.6
5787.2
3201.55
1964.73
975.527
718.416
700.554
13501.6
5873.17
3229.54
1924.09
963.37
753.895
739.795
13496.8
5811.9
3209.85
1942.94
966.316
734.739
719.479
13632.6
6143.05
3334.52
1673.26
1024.23
957.409
953.536
13706.7
6181.18
3308.2
1608.95
1076.65
1030.4
1027.71
13658.6
6165.29
3329.38
1642.38
1049.22
992.54
989.277
13786.6
6201.59
3243.86
1565.52
1147.44
1116.33
1114.43
13734.9
6194.36
3283.22
1586.52
1110.14
1071.58
1069.3
14709.8
5701.79
2715.85
1982.73
1913.58
1912.02
1911.93
13447.9
5672
3161.89
2023.59
1030.92
664.256
634.031
13449.9
5553.72
3112.44
2038.9
1107.63
628.774
579.393
13495.8
5715.68
3173.96
1995.88
996.935
688.133
665.537
13493.2
5746.05
3187.41
1981.93
986.013
702.639
682.614
13461
5706.56
3175.48
2015.17
1017.17
676.493
649.495
13433.8
5613.83
3142
2039.23
1069.89
645.149
605.457
13439.1
5564.28
3120.87
2037.3
1087.26
635.036
591.948
13590.7
5209.18
2870.75
1939.03
1349.74
677.99
431.676
13464.3
5449.63
3051.78
2016.24
1184.66
609.066
534.018
13381.5
5408.24
3017.66
2007.47
1261.17
613.76
497.145
13389.2
5351.74
2972.9
1994.23
1318.83
635.697
467.124
13456.9
5286.35
2918.38
1967.18
1350.51
666.333
442.821
13453.6
5267.83
2906.73
1959.89
1355.79
673.358
437.225
14069.8
6088.35
2994.01
1566.07
1351.7
1340.49
1339.56
13162.1
5479.37
3005.11
1993.15
1399.93
750.094
428.659
13582
5169.46
2882.79
1927.25
1340.43
763.248
444.436
15810.8
6050.78
3642.35
3266.69
3228.53
3231.74
3234.82
16629
6578.15
4199.77
3795.93
3746.17
3747.57
3753.76
12561.4
5533.22
3093.72
2048.77
1404.49
855.929
499.729
16291.3
6516.12
4352.32
3994.67
3952.33
3955.39
3966.6
13899.5
6176.35
3134.81
1545.9
1237.49
1218.29
1216.96
13821.5
6201.22
3199.74
1555.39
1190.26
1165.07
1163.46
11919.6
5719.86
3230.79
2149.57
1479.34
941.165
554.925
12141.7
6040.1
3348.86
2172.7
1477.2
905.402
524.226
11586.7
5831.56
3304.13
2200.37
1521.78
988.67
589.198
11639.8
6275.08
3550.37
2305.61
1567.61
996.774
584.087
11565.3
5773.37
3262.41
2170.27
1504.32
992.592
597.718
11559.6
6233.03
3522.41
2284.03
1557.8
1010.24
601.674
11561.5
5730.61
3265.92
2170.12
1506.63
985.629
590.124
11576.3
6199.2
3489.84
2263.53
1545.61
1007.78
603.788
11972.9
5652.63
3194.41
2117.09
1461.57
945.526
559.112
11547.7
6096.67
3437.76
2240.44
1534.02
988.931
583.57
12608.9
5675.88
3165.89
2071.82
1417.32
876.615
510.331
12637.7
6015.66
3310.43
2132.69
1453.33
866.491
492.068
12032.8
6274.48
3483.63
2224.07
1505.74
944.627
546.334
16696.9
6655.11
4275.15
3856.41
3799.61
3799.07
3804.51
15736.3
6049.03
3696.55
3315.1
3271.78
3273.19
3275.29
16319
6528.21
4310.73
3937.22
3890.92
3892.64
3896.46
15200.4
5877.37
3122.33
2644.68
2599.47
2601.69
2603.01
15523.8
6079.16
3401.75
2934.76
2886.83
2890.15
2893.39
14992.7
5788.25
2808.22
2224.62
2175.53
2176.77
2177.24
15105.7
5802.41
2926.76
2410.9
2365.29
2367.56
2368.5
14755.6
5781.94
2712.2
1941.4
1871.75
1871.13
1871
14854.2
5714.02
2722.5
2064.88
2009.07
2009.8
2009.82
14498.4
5886.45
2742.66
1742.58
1643.28
1640.71
1640.33
14614.9
5799.52
2701.97
1829.85
1748.91
1747.69
1747.42
14233.8
6040.89
2868.44
1611.27
1465.73
1460.58
1459.84
14355.1
5981.18
2803.81
1670.79
1549.15
1545.6
1545.03
14037.1
6161.77
3021.59
1540.54
1325.26
1315.66
1314.57
14121.9
6126.72
2954.34
1572.51
1391.68
1384.43
1383.48
13913.7
6212.36
3152.79
1514.93
1212.43
1196.88
1195.4
13972.3
6199.77
3092.01
1522.59
1265.54
1253.45
1252.18
13821
6219.93
3256.03
1527.9
1122.26
1097.98
1096.11
13866.5
6224.44
3208.24
1516.14
1164.44
1145.28
1143.64
13756
6194.53
3325.94
1572.18
1051.39
1014.4
1011.98
13782.2
6216.68
3297.45
1546.93
1084.52
1054.47
1052.36
13712.9
6140.29
3350.31
1632.03
995.978
942.881
939.764
13734.1
6170.94
3342.64
1598.89
1021.45
977.206
974.517
13667.4
6080.61
3338.44
1704.39
956.029
881.334
877.261
13690.1
6113.52
3348.5
1665.97
973.882
910.946
907.419
13635.1
6016.23
3303.67
1779.23
931.991
828.029
822.512
13646.1
6050.78
3322.84
1742.3
941.983
853.63
848.959
13619.2
5944.34
3262.5
1843.05
919.928
781.39
774.122
13627
5977.48
3278.46
1809.54
922.953
803.601
797.479
13598.9
5872.02
3233.29
1900.49
921.159
740.89
731.164
13607
5906.72
3243.68
1870.55
917.778
760.128
751.963
13571.9
5802.29
3213.68
1952.3
935.646
705.957
692.779
13579.5
5839.33
3223.89
1927.42
927.009
722.618
711.403
13564.5
5732.27
3193.41
1993.73
960.277
676.058
658.304
13562.4
5768
3204.29
1974.28
946.867
690.18
675.042
13567.2
5666.15
3167.88
2021.61
990.93
650.232
627.237
13558.5
5700.34
3181.87
2009.34
975.059
662.455
642.355
13545.5
5615.43
3145.63
2040.45
1028.16
629.21
599.176
13550.4
5651.9
3162.02
2034.47
1011.34
639.858
612.959
13499.1
5581.34
3129.11
2050.95
1071.71
613.656
573.739
13518.2
5616.22
3145.13
2050.07
1052.91
622.006
586.303
13480.8
5537.63
3108.65
2050.46
1117.49
602.985
550.564
13488.6
5560.73
3120.05
2051.83
1095.11
607.641
561.875
13490.1
5499.65
3084.38
2039.73
1162.38
596.233
529.244
13491.7
5495.81
3086.96
2040.22
1136.95
597.172
539.406
13506.9
5464.69
3057.14
2025.27
1203.94
594.686
509.798
13500.4
5454.09
3059.24
2025.55
1179.96
592.941
518.985
13509.1
5427.04
3028.25
2013.32
1240.33
596.688
491.983
13502.2
5430.74
3036.67
2015.49
1220.55
593.726
500.461
13495
5390.15
3001.38
2003.58
1272.71
602.849
475.757
13493.2
5408.89
3015.14
2008.13
1256.95
599.301
483.682
13466.2
5366.31
2981.78
1998.07
1303.14
614.137
461.168
13473.2
5389.01
2996.48
2002.57
1289.7
609.456
468.552
13446.1
5347.64
2965.06
1992.98
1329.74
629.528
448.201
13449.5
5361.07
2976.24
1996.61
1317.81
622.199
454.635
13550.9
5278.55
2923.37
1972.04
1341.74
642.393
435.825
13448.1
5309.63
2947.22
1984.2
1337.31
636.206
441.833
13685.1
5251.63
2890.64
1952.13
1348.63
663.11
427.008
13529.9
5342.01
2943.24
1980.71
1357.58
657.397
432.184
16407.4
6574.71
4397.7
4034.3
3989.17
3991.27
4001.85
15869.7
6000.65
3884.39
3575.83
3545.81
3551.96
3563.72
13511.1
5947.29
3251.93
1869.21
957.655
794.041
783.761
13496.8
5891.11
3232.92
1894.88
957.297
772.56
760.964
16514.9
6590.98
4351.07
3968.32
3919.59
3920.84
3932.74
15910.3
6054.13
3803.76
3463.26
3428.36
3433.08
3444.82
16050.4
6021.03
3887.3
3575.08
3542.5
3547.68
3559.39
13553
6013.47
3282.09
1808.71
965.162
840.602
833.171
13528.8
5968.42
3261.79
1838.15
959.004
816.202
807.646
14246.5
5968.55
2853.66
1641.94
1496.13
1489.64
1489.02
14144
6024.11
2920.66
1596.58
1419.38
1411.03
1410.28
16500.5
6602.59
4342.41
3950.71
3899.42
3899.6
3899.5
15893.2
6008.25
3833.99
3508.02
3474.2
3478.69
3481.21
16094.5
6050.1
3817.14
3481.21
3443.19
3446.76
3449.1
13292.3
5376.68
2925.67
1961.29
1372.85
710.071
427.552
13527.3
5402.16
2936.7
1963.22
1370.34
702.67
432.468
13264.5
5331.73
2925.26
1955.24
1373.9
721.019
425.395
13594.8
6112.51
3333.69
1711.36
1004.93
924.864
920.249
13588.9
6082.06
3319.94
1745.02
987.795
894.712
889.277
13449.8
5510.56
3091.82
2032.11
1126.27
621.044
567.117
13467.7
5495.78
3080.08
2028.34
1145.7
616.504
555.638
13432.5
5641.39
3154.18
2033.94
1051.64
654.149
619.382
14572.1
5737.18
2706.24
1868.48
1787.76
1785.6
1785.57
14452.6
5823.53
2738.89
1776.67
1678.85
1675.44
1675.07
13431.2
5461.75
3054.15
2017.94
1208.48
610.865
524.457
13428
5425.93
3032.95
2009.68
1223.84
608.785
514.656
13566.2
6039.46
3300.03
1777.28
974.684
866.568
860.277
13450.3
5473.81
3068.44
2023.42
1166.92
613.004
544.69
13397.3
5439.72
3036.1
2012.77
1246.06
613.361
506.088
13376.7
5374.97
2995.85
2002.51
1293.11
623.089
481.35
13411.4
5328.6
2949.38
1983.37
1338.21
651.514
454.644
13968
6147.35
3073.01
1553.88
1291.79
1276.65
1275.53
14337.1
5880.05
2784.62
1699.49
1581.32
1576.82
1576.36
14959.9
5717.14
2847.04
2277.54
2222.33
2221.93
2222.37
14818.4
5654.63
2750.84
2116.08
2055.7
2054.95
2055.17
13344.5
5454.76
2984.6
1983.47
1377.28
743.072
432.867
13522.7
5367.43
2944.3
1968.8
1366.03
706.907
428.518
15076.1
5844.48
3189.76
2701.54
2649.15
2649.17
2649.68
15452.3
6114.79
3486.74
2998.36
2941.27
2942.06
2944.4
15000
5714.04
2980.79
2468.09
2415
2415.23
2416.15
13469.3
5611.47
3056.78
2022.45
1394.54
708.058
433.667
16271
6503.3
4298.39
3930.57
3886.29
3888.72
3893.36
15855.2
5983.07
3809.89
3490.28
3458.96
3464.14
3463.06
15845.4
5983.45
3842
3529.99
3500.43
3506.65
3515.73
16267.3
6507.64
4321.11
3953.34
3909.4
3912.04
3916.28
13398.5
5302.88
2947.1
1981.91
1325.04
641.102
460.167
13376.3
5385.97
3006.51
2004.54
1277.67
617.831
488.994
13413.2
5285.37
2927.29
1972.15
1342.9
657.992
448.424
13389.5
5332.55
2972.52
1992.57
1303.41
626.887
473.601
13296.7
5744.24
3123.07
2046.09
1412.24
751.478
438.639
13269.6
5386.45
3014.25
2013.42
1288.96
641.653
506.804
13265.4
5433.01
2984.36
1985.32
1371.59
746.485
447.113
13333.5
6220.09
3379.07
1811.88
1086.71
989.603
984.063
13344.6
5754.59
3234.42
2028.01
1036.15
738.492
716.899
13344.5
6329.46
3406.33
1773.51
1144.36
1067.58
1063.11
13325.8
6267.32
3395.28
1792.1
1113.04
1027.06
1022.17
13269
5324.47
2943.07
1983.37
1367.14
706.409
457.116
13290.4
5535.52
3129.38
2058.61
1160.98
649.299
590.759
14163.2
6254.2
3082.15
1984.94
1788.28
1770.63
1769.23
13256
5594.36
3154.8
2061.85
1121.97
663.522
617.658
13275
5544.55
3134.76
2057.05
1138.32
654.04
603.639
13330.9
6015.76
3308.42
1908.68
1025.24
865.73
856.353
12953.8
5870.65
3204.1
2085.54
1430.63
801.709
464.143
13235.6
5355.11
2985.85
2009.15
1344.05
668.186
477.612
13493.2
6432.92
3320.48
1734.61
1311.94
1269.49
1266.87
13287.6
6137.38
3347.55
1861.88
1049.03
923.175
915.814
13296.8
6066.41
3325.55
1884.47
1033.76
893.033
884.983
12767.6
5958.2
3266.55
2115.75
1442.7
830.621
473.189
12121.9
5692.96
3215.15
2135.29
1464.42
924.259
546.37
12095.4
5625.96
3183.6
2114.39
1455.87
940.016
563.237
12135.8
6203.85
3488.71
2263.09
1532.32
965.717
568.863
12214.3
5552.12
3139.45
2088.55
1442.17
938.762
565.311
12111.2
6063.56
3390.71
2191.78
1490.27
957.507
571.876
12113.9
5632.8
3172.9
2104.21
1450.96
931.783
553.422
12417.3