/*--------------------------------*- C++ -*----------------------------------*\
  =========                 |
  \\      /  F ield         | OpenFOAM: The Open Source CFD Toolbox
   \\    /   O peration     | Website:  https://openfoam.org
    \\  /    A nd           | Version:  12
     \\/     M anipulation  |
\*---------------------------------------------------------------------------*/
FoamFile
{
    format      ascii;
    class       volScalarField;
    location    "11000";
    object      p;
}
// * * * * * * * * * * * * * * * * * * * * * * * * * * * * * * * * * * * * * //

dimensions      [0 2 -2 0 0 0 0];

internalField   nonuniform List<scalar> 
24749
(
111.483
111.451
111.388
111.289
111.179
111.045
110.913
111.193
110.865
110.431
110.077
109.917
109.954
110.08
110.144
110.159
110.207
110.271
110.322
110.315
110.251
109.913
109.927
109.961
109.995
110.011
110.005
109.997
109.75
109.758
109.775
109.792
109.797
109.791
109.794
109.61
109.613
109.622
109.63
109.631
109.626
109.631
109.472
109.473
109.477
109.481
109.48
109.477
109.478
109.334
109.334
109.336
109.339
109.338
109.336
109.335
109.201
109.202
109.204
109.206
109.205
109.204
109.203
109.066
109.066
109.067
109.069
109.068
109.068
109.068
108.95
108.95
108.95
108.95
108.949
108.948
108.948
108.817
108.817
108.818
108.819
108.818
108.819
108.817
108.693
108.692
108.692
108.693
108.692
108.693
108.695
108.577
108.576
108.575
108.574
108.574
108.573
108.575
108.437
108.438
108.44
108.441
108.444
108.446
108.451
108.246
108.247
108.249
108.251
108.254
108.258
108.268
108.012
108.01
108.008
108.007
108.008
108.011
108.024
106.754
106.725
106.705
106.706
106.731
106.811
106.979
105.01
104.936
104.851
104.83
104.894
105.119
105.746
105.585
105.658
105.716
105.783
105.919
106.134
106.431
104.172
103.817
103.628
103.663
103.797
104.106
104.936
103.794
103.602
103.411
103.413
103.656
104.158
105.247
106.153
105.976
105.632
105.346
105.176
105.201
105.891
107.727
107.575
107.319
107.06
106.853
106.73
106.877
104.204
104.471
104.825
105.192
105.539
105.896
106.396
109.047
108.953
108.774
108.569
108.344
108.146
107.943
106.317
106.475
106.679
106.881
107.059
107.211
107.258
109.85
109.83
109.703
109.526
109.313
109.047
108.648
107.795
107.887
108.022
108.143
108.218
108.222
108.066
110.286
110.275
110.191
110.068
109.853
109.589
109.152
108.597
108.651
108.757
108.845
108.883
108.854
108.66
110.448
110.444
110.356
110.228
110.069
109.831
109.511
108.973
109.033
109.115
109.185
109.204
109.149
108.867
110.371
110.361
110.265
110.121
109.947
109.658
109.304
108.968
109.029
109.122
109.2
109.231
109.185
109.002
109.926
109.904
109.776
109.603
109.398
109.167
108.824
108.644
108.71
108.822
108.924
108.972
108.973
108.844
109.144
109.049
108.872
108.661
108.438
108.215
108.022
107.755
107.854
108.013
108.166
108.289
108.364
108.345
107.868
107.745
107.546
107.351
107.184
107.073
107.18
106.585
106.736
106.919
107.104
107.267
107.384
107.416
106.013
105.821
105.574
105.413
105.399
105.511
105.948
104.362
104.553
104.787
105.035
105.296
105.604
106.243
105.582
105.736
105.953
106.198
106.424
106.634
106.939
101.139
101.744
102.394
103.089
103.786
104.632
105.694
111.5
111.469
111.406
111.307
111.194
111.058
110.923
111.215
110.885
110.449
110.089
109.92
109.955
110.08
109.829
109.916
110.069
110.239
110.42
110.55
110.616
111.503
111.436
111.374
111.276
111.104
110.885
110.704
110.138
110.154
110.206
110.273
110.324
110.308
110.253
110.626
110.586
110.49
110.37
110.255
110.155
110.163
110.027
110.039
110.079
110.127
110.158
110.148
110.125
110.394
110.374
110.324
110.264
110.22
110.203
110.228
109.907
109.92
109.953
109.987
110.004
110
109.994
110.158
110.144
110.108
110.062
110.031
110.021
110.024
109.824
109.834
109.857
109.879
109.888
109.883
109.881
110
109.991
109.965
109.936
109.922
109.919
109.918
109.751
109.757
109.773
109.788
109.792
109.788
109.791
109.867
109.862
109.845
109.825
109.82
109.823
109.817
109.679
109.683
109.694
109.705
109.706
109.702
109.704
109.769
109.766
109.754
109.74
109.739
109.741
109.74
109.607
109.61
109.618
109.626
109.627
109.623
109.626
109.678
109.676
109.668
109.657
109.656
109.658
109.658
109.536
109.538
109.544
109.55
109.55
109.547
109.549
109.597
109.596
109.59
109.582
109.582
109.584
109.58
109.465
109.467
109.471
109.476
109.477
109.476
109.478
109.52
109.519
109.515
109.509
109.509
109.51
109.506
109.397
109.397
109.401
109.405
109.405
109.403
109.406
109.444
109.444
109.441
109.437
109.437
109.439
109.439
109.329
109.329
109.332
109.335
109.335
109.334
109.333
109.371
109.371
109.369
109.366
109.366
109.365
109.361
109.263
109.263
109.265
109.268
109.268
109.269
109.272
109.304
109.304
109.303
109.3
109.3
109.302
109.297
109.195
109.196
109.197
109.2
109.2
109.2
109.201
109.235
109.235
109.234
109.232
109.232
109.232
109.23
109.131
109.131
109.132
109.135
109.136
109.137
109.141
109.167
109.167
109.167
109.166
109.166
109.167
109.165
109.066
109.066
109.067
109.068
109.068
109.068
109.07
109.101
109.101
109.101
109.101
109.101
109.101
109.1
109.003
109.003
109.004
109.005
109.005
109.006
109.008
109.036
109.036
109.036
109.036
109.036
109.036
109.034
108.943
108.943
108.943
108.944
108.944
108.944
108.946
108.972
108.972
108.973
108.973
108.974
108.975
108.976
108.883
108.882
108.882
108.882
108.882
108.881
108.881
108.905
108.906
108.906
108.907
108.908
108.908
108.909
108.82
108.82
108.819
108.819
108.819
108.817
108.817
108.845
108.845
108.846
108.846
108.847
108.847
108.847
108.753
108.753
108.753
108.754
108.755
108.755
108.755
108.787
108.787
108.787
108.787
108.786
108.784
108.783
108.686
108.687
108.688
108.689
108.691
108.691
108.691
108.729
108.728
108.728
108.727
108.726
108.724
108.723
108.622
108.623
108.625
108.627
108.629
108.63
108.631
108.666
108.665
108.664
108.663
108.661
108.66
108.658
108.563
108.563
108.564
108.566
108.567
108.568
108.567
108.599
108.598
108.598
108.598
108.597
108.597
108.595
108.504
108.504
108.504
108.504
108.505
108.505
108.507
108.53
108.531
108.531
108.532
108.532
108.533
108.53
108.441
108.441
108.441
108.442
108.444
108.448
108.458
108.467
108.468
108.468
108.47
108.472
108.473
108.475
108.352
108.351
108.351
108.352
108.355
108.357
108.363
108.397
108.398
108.399
108.399
108.402
108.405
108.412
108.24
108.238
108.237
108.238
108.241
108.246
108.256
108.287
108.288
108.291
108.294
108.299
108.305
108.31
108.145
108.138
108.129
108.122
108.118
108.116
108.12
108.12
108.127
108.135
108.145
108.156
108.165
108.176
108.037
108.024
108.008
107.994
107.987
107.988
108.007
107.962
107.974
107.99
108.008
108.028
108.046
108.062
107.854
107.836
107.81
107.783
107.76
107.746
107.776
107.817
107.825
107.837
107.848
107.862
107.882
107.924
106.678
106.717
106.768
106.821
106.877
106.956
107.091
107.965
107.628
107.271
106.962
106.731
106.63
106.734
107.903
107.842
107.78
107.704
107.633
107.577
107.582
110.346
110.531
110.667
110.777
110.858
110.877
110.849
110.202
110.397
110.525
110.631
110.71
110.746
110.747
110.094
110.305
110.448
110.57
110.662
110.711
110.723
110.142
110.342
110.478
110.592
110.678
110.723
110.731
110.221
110.412
110.537
110.641
110.719
110.754
110.754
110.331
110.518
110.657
110.769
110.852
110.874
110.852
111.456
111.394
111.338
111.247
111.084
110.875
110.695
109.875
109.956
110.1
110.259
110.429
110.55
110.622
110.627
110.587
110.492
110.374
110.258
110.159
110.138
110.037
110.05
110.093
110.142
110.169
110.16
110.135
109.83
109.84
109.865
109.888
109.896
109.889
109.887
109.68
109.685
109.697
109.709
109.711
109.705
109.704
109.538
109.54
109.546
109.552
109.551
109.548
109.55
109.404
109.404
109.407
109.411
109.41
109.408
109.412
109.27
109.27
109.272
109.275
109.274
109.273
109.274
109.132
109.133
109.135
109.137
109.138
109.138
109.143
109.008
109.008
109.008
109.009
109.008
109.008
109.007
108.883
108.883
108.883
108.884
108.884
108.884
108.886
108.752
108.752
108.753
108.754
108.754
108.755
108.756
108.636
108.635
108.635
108.634
108.633
108.631
108.632
108.509
108.509
108.509
108.509
108.51
108.51
108.51
108.347
108.348
108.35
108.351
108.354
108.354
108.354
108.145
108.143
108.14
108.137
108.136
108.134
108.135
107.553
107.554
107.562
107.58
107.612
107.665
107.758
112.266
111.891
111.58
111.35
111.122
110.938
110.816
112.498
112.154
111.795
111.449
111.15
110.926
110.793
110.281
110.451
110.565
110.66
110.733
110.769
110.769
112.478
112.108
111.737
111.396
111.102
110.886
110.761
110.107
110.317
110.461
110.582
110.674
110.722
110.732
112.477
112.123
111.767
111.432
111.137
110.911
110.767
112.491
112.113
111.732
111.385
111.089
110.875
110.75
110.135
110.34
110.474
110.588
110.674
110.717
110.726
110.165
110.363
110.498
110.611
110.696
110.737
110.742
110.271
110.443
110.559
110.656
110.731
110.769
110.77
112.223
111.852
111.547
111.323
111.101
110.924
110.797
110.388
110.368
110.319
110.259
110.215
110.21
110.228
110.013
110.003
109.976
109.947
109.933
109.935
109.936
109.775
109.771
109.758
109.744
109.741
109.744
109.745
109.598
109.597
109.591
109.584
109.584
109.586
109.582
109.445
109.445
109.443
109.439
109.44
109.442
109.44
109.305
109.305
109.304
109.302
109.304
109.305
109.305
109.175
109.175
109.174
109.173
109.173
109.173
109.171
109.034
109.034
109.035
109.035
109.036
109.038
109.034
108.918
108.918
108.918
108.918
108.918
108.917
108.916
108.785
108.785
108.785
108.786
108.786
108.787
108.786
108.652
108.653
108.654
108.655
108.658
108.659
108.659
108.545
108.545
108.545
108.545
108.544
108.542
108.539
108.406
108.405
108.404
108.404
108.405
108.405
108.408
108.183
108.185
108.187
108.189
108.193
108.195
108.201
107.916
107.908
107.901
107.893
107.892
107.898
107.922
112.46
112.091
111.72
111.377
111.086
110.875
110.752
109.68
109.678
109.669
109.659
109.658
109.66
109.661
109.517
109.516
109.513
109.508
109.509
109.511
109.508
109.376
109.376
109.375
109.372
109.373
109.374
109.372
109.242
109.241
109.241
109.239
109.239
109.24
109.239
109.104
109.104
109.104
109.104
109.104
109.104
109.104
108.975
108.975
108.976
108.976
108.977
108.979
108.979
108.852
108.852
108.852
108.852
108.852
108.852
108.847
108.715
108.715
108.716
108.717
108.718
108.719
108.717
108.598
108.599
108.6
108.6
108.601
108.601
108.601
108.483
108.482
108.481
108.481
108.481
108.48
108.482
108.303
108.303
108.303
108.304
108.307
108.311
108.314
108.086
108.085
108.084
108.083
108.083
108.082
108.086
107.027
107.057
107.093
107.14
107.208
107.298
107.439
109.885
109.878
109.859
109.838
109.83
109.831
109.829
110.166
110.151
110.113
110.068
110.037
110.029
110.028
112.497
112.15
111.788
111.443
111.144
110.922
110.785
112.452
112.095
111.734
111.4
111.111
110.896
110.766
112.437
112.077
111.714
111.376
111.089
110.878
110.753
112.442
112.082
111.718
111.383
111.096
110.885
110.76
112.483
112.129
111.773
111.441
111.147
110.921
110.78
110.71
110.624
110.492
110.363
110.266
110.212
110.27
109.022
109.319
109.637
109.913
110.162
110.343
110.46
109.73
109.729
109.726
109.723
109.728
109.738
109.748
110.031
110.029
110.016
110.007
110.005
110.014
110.025
109.588
109.586
109.582
109.578
109.579
109.584
109.585
109.441
109.44
109.438
109.435
109.436
109.439
109.439
109.298
109.298
109.297
109.297
109.297
109.299
109.301
109.161
109.162
109.163
109.165
109.167
109.169
109.17
109.029
109.03
109.03
109.031
109.032
109.034
109.033
108.924
108.922
108.92
108.918
108.916
108.916
108.916
108.77
108.771
108.773
108.776
108.779
108.783
108.787
108.676
108.674
108.67
108.667
108.664
108.662
108.663
108.553
108.551
108.548
108.546
108.545
108.543
108.542
108.376
108.38
108.386
108.391
108.398
108.404
108.407
108.203
108.201
108.2
108.201
108.204
108.208
108.213
107.936
107.936
107.934
107.931
107.932
107.94
107.951
109.149
109.505
109.854
110.155
110.389
110.537
110.599
109.815
109.815
109.81
109.807
109.812
109.823
109.828
109.764
109.767
109.775
109.782
109.784
109.784
109.777
106.094
107.143
108.003
108.75
109.345
109.831
110.163
107.153
106.998
106.8
106.614
106.491
106.502
106.762
109.031
109.415
109.79
110.112
110.36
110.519
110.587
111.824
111.541
111.218
110.935
110.733
110.622
110.591
109.659
109.658
109.654
109.649
109.65
109.656
109.661
109.612
109.614
109.62
109.626
109.626
109.625
109.621
108.649
108.518
108.311
108.086
107.879
107.715
107.546
109.208
109.125
108.957
108.773
108.58
108.369
108.17
107.159
107.295
107.458
107.615
107.749
107.845
107.872
109.587
109.526
109.384
109.213
109.023
108.828
108.495
107.724
107.838
107.98
108.119
108.234
108.263
108.23
109.759
109.707
109.578
109.418
109.237
109.036
108.646
108.012
108.108
108.24
108.373
108.478
108.533
108.463
109.749
109.693
109.552
109.4
109.22
108.985
108.719
108.151
108.251
108.376
108.497
108.585
108.61
108.519
109.568
109.502
109.373
109.205
109.026
108.856
108.523
107.936
108.036
108.171
108.31
108.429
108.503
108.471
109.383
109.293
109.101
108.88
108.662
108.447
108.245
107.743
107.861
108.021
108.153
108.247
108.264
108.215
108.808
108.68
108.461
108.236
108.012
107.838
107.716
106.923
107.09
107.307
107.533
107.73
107.86
107.918
108.951
109.333
109.707
110.032
110.291
110.461
110.535
112.036
111.711
111.358
111.025
110.759
110.591
110.531
110.219
110.445
110.65
110.773
110.788
110.727
110.617
110.596
110.53
110.425
110.313
110.23
110.193
110.244
109.771
109.813
109.843
109.916
110.054
110.223
110.386
110.3
110.275
110.235
110.197
110.179
110.197
110.247
110.132
110.158
110.207
110.282
110.343
110.366
110.342
110.013
110.009
109.995
109.987
109.988
110.003
110.026
110.046
110.053
110.073
110.101
110.117
110.118
110.114
109.885
109.887
109.881
109.879
109.885
109.899
109.906
109.94
109.944
109.956
109.97
109.976
109.978
109.972
109.815
109.813
109.806
109.801
109.804
109.814
109.821
109.828
109.833
109.843
109.853
109.856
109.859
109.856
109.748
109.744
109.737
109.729
109.729
109.736
109.741
109.745
109.75
109.76
109.771
109.775
109.775
109.779
109.66
109.657
109.652
109.646
109.647
109.652
109.654
109.671
109.675
109.683
109.691
109.694
109.694
109.691
109.581
109.579
109.575
109.571
109.572
109.576
109.579
109.596
109.599
109.605
109.611
109.614
109.615
109.615
109.507
109.505
109.503
109.5
109.501
109.504
109.507
109.526
109.528
109.532
109.537
109.539
109.539
109.541
109.43
109.43
109.429
109.427
109.429
109.432
109.436
109.461
109.462
109.466
109.469
109.469
109.469
109.465
109.361
109.36
109.359
109.357
109.357
109.358
109.356
109.387
109.388
109.39
109.394
109.395
109.394
109.392
109.296
109.296
109.295
109.294
109.294
109.296
109.298
109.321
109.322
109.323
109.326
109.325
109.325
109.321
109.223
109.223
109.223
109.224
109.224
109.228
109.231
109.262
109.262
109.263
109.264
109.264
109.263
109.258
109.155
109.155
109.156
109.156
109.156
109.155
109.154
109.191
109.191
109.192
109.193
109.193
109.193
109.193
109.096
109.096
109.096
109.096
109.096
109.098
109.101
109.123
109.124
109.124
109.125
109.125
109.125
109.122
109.031
109.031
109.03
109.031
109.03
109.03
109.033
109.064
109.064
109.064
109.066
109.066
109.066
109.066
108.967
108.967
108.967
108.967
108.967
108.969
108.972
108.996
108.996
108.997
108.998
108.999
109
108.998
108.91
108.909
108.908
108.906
108.904
108.903
108.906
108.924
108.925
108.926
108.929
108.931
108.932
108.93
108.857
108.855
108.853
108.85
108.847
108.846
108.848
108.859
108.861
108.863
108.867
108.869
108.871
108.87
108.793
108.791
108.789
108.787
108.785
108.783
108.78
108.808
108.81
108.811
108.813
108.815
108.814
108.816
108.709
108.711
108.713
108.715
108.719
108.723
108.727
108.763
108.762
108.762
108.761
108.759
108.756
108.752
108.629
108.632
108.637
108.642
108.647
108.651
108.651
108.707
108.704
108.7
108.697
108.694
108.691
108.686
108.568
108.572
108.576
108.58
108.585
108.587
108.589
108.635
108.632
108.629
108.626
108.624
108.622
108.622
108.522
108.523
108.524
108.525
108.527
108.529
108.53
108.56
108.559
108.558
108.556
108.555
108.554
108.549
108.477
108.476
108.475
108.474
108.474
108.473
108.475
108.494
108.495
108.495
108.496
108.497
108.499
108.501
108.416
108.414
108.412
108.41
108.409
108.409
108.413
108.432
108.433
108.435
108.436
108.439
108.443
108.448
108.325
108.323
108.321
108.32
108.32
108.321
108.33
108.36
108.36
108.36
108.361
108.363
108.365
108.368
108.206
108.196
108.185
108.179
108.177
108.172
108.176
108.222
108.227
108.234
108.242
108.254
108.266
108.286
108.262
108.229
108.189
108.15
108.114
108.087
108.077
107.886
107.914
107.948
107.983
108.021
108.059
108.079
108.16
108.112
108.059
108.009
107.968
107.949
107.971
107.699
107.75
107.809
107.866
107.921
107.968
108.005
108.95
109.344
109.73
110.06
110.319
110.489
110.565
111.876
111.578
111.237
110.942
110.728
110.609
110.573
109.003
109.371
109.732
110.047
110.297
110.463
110.532
111.865
111.565
111.218
110.918
110.697
110.575
110.54
109.163
109.51
109.854
110.151
110.382
110.528
110.591
109.199
109.541
109.879
110.171
110.397
110.539
110.599
111.797
111.525
111.21
110.937
110.739
110.628
110.596
111.791
111.522
111.213
110.939
110.741
110.627
110.594
109.026
109.399
109.766
110.082
110.331
110.495
110.569
111.893
111.592
111.244
110.943
110.716
110.587
110.55
106.119
107.176
108.036
108.778
109.363
109.835
110.163
108.124
107.909
107.567
107.241
106.985
106.873
106.975
106.206
106.389
106.612
106.833
107.046
107.235
107.372
105.081
105.366
105.702
106.04
106.38
106.704
106.973
110.274
110.244
110.201
110.166
110.156
110.185
110.22
110.142
110.171
110.225
110.301
110.357
110.368
110.322
110.028
110.036
110.061
110.093
110.115
110.129
110.143
109.917
109.918
109.91
109.907
109.912
109.933
109.949
109.867
109.87
109.879
109.89
109.894
109.895
109.897
112.4
112.082
111.611
111.216
110.87
110.609
110.463
112.408
112.085
111.613
111.215
110.866
110.609
110.494
109.271
109.272
109.273
109.274
109.273
109.27
109.269
109.234
109.234
109.234
109.234
109.235
109.237
109.241
109.967
109.971
109.984
109.999
110.005
110.008
109.999
109.215
109.214
109.214
109.214
109.21
109.207
109.204
109.508
109.507
109.505
109.502
109.504
109.508
109.509
109.372
109.372
109.371
109.368
109.368
109.37
109.372
109.539
109.541
109.546
109.55
109.549
109.548
109.54
109.087
109.089
109.092
109.095
109.098
109.101
109.107
108.987
108.985
108.983
108.981
108.979
108.98
108.98
108.842
108.842
108.843
108.845
108.847
108.849
108.851
108.718
108.718
108.718
108.718
108.718
108.717
108.715
108.627
108.623
108.619
108.614
108.61
108.607
108.606
108.464
108.466
108.468
108.471
108.475
108.478
108.482
108.288
108.292
108.297
108.302
108.308
108.313
108.321
108.164
108.156
108.144
108.131
108.12
108.111
108.107
109.679
109.682
109.689
109.696
109.698
109.697
109.685
107.154
107.167
107.191
107.23
107.288
107.369
107.512
109.059
109.345
109.652
109.921
110.162
110.333
110.433
109.645
109.706
109.763
109.861
110.023
110.216
110.391
105.953
106.178
106.434
106.692
106.949
107.202
107.421
107.872
107.763
107.582
107.375
107.207
107.129
107.224
110.291
110.5
110.688
110.794
110.801
110.728
110.614
111.835
111.557
111.235
110.947
110.737
110.615
110.578
105.882
106.005
106.154
106.333
106.549
106.795
107.036
107.782
107.754
107.713
107.676
107.652
107.64
107.681
108.695
108.461
108.207
107.964
107.749
107.605
107.56
107.565
107.635
107.703
107.76
107.807
107.833
107.879
109.151
109.149
109.148
109.147
109.145
109.144
109.146
111.987
111.676
111.338
111.003
110.742
110.579
110.511
107.963
107.916
107.875
107.823
107.786
107.766
107.795
108.085
108.08
108.077
108.072
108.066
108.06
108.063
108.259
108.259
108.258
108.259
108.262
108.268
108.275
108.468
108.464
108.46
108.456
108.453
108.45
108.449
108.57
108.571
108.574
108.575
108.577
108.576
108.574
108.672
108.674
108.676
108.679
108.682
108.684
108.684
108.089
108.1
108.112
108.126
108.139
108.152
108.156
108.38
108.377
108.372
108.369
108.366
108.366
108.366
108.524
108.523
108.522
108.521
108.52
108.516
108.515
108.613
108.616
108.62
108.624
108.63
108.633
108.635
108.744
108.745
108.745
108.746
108.747
108.748
108.748
108.893
108.892
108.892
108.892
108.89
108.888
108.887
108.995
108.996
108.997
108.999
109
109.001
108.997
108.945
108.947
108.948
108.95
108.951
108.951
108.951
108.822
108.821
108.82
108.82
108.818
108.817
108.814
109.336
109.336
109.339
109.341
109.34
109.336
109.333
109.466
109.467
109.471
109.475
109.475
109.474
109.47
109.402
109.403
109.405
109.409
109.409
109.408
109.407
109.069
109.069
109.069
109.07
109.07
109.069
109.068
109.037
109.04
109.046
109.053
109.06
109.067
109.075
109.105
109.108
109.114
109.121
109.128
109.134
109.137
109.114
109.111
109.108
109.104
109.101
109.103
109.109
109.413
109.413
109.412
109.411
109.41
109.409
109.408
109.472
109.472
109.472
109.473
109.472
109.471
109.469
109.435
109.436
109.437
109.436
109.435
109.435
109.434
109.539
109.539
109.539
109.541
109.542
109.544
109.542
109.497
109.499
109.5
109.5
109.501
109.505
109.51
109.96
109.972
109.987
109.999
109.999
109.985
109.976
108.982
108.977
108.971
108.964
108.957
108.953
108.951
108.789
108.792
108.798
108.803
108.808
108.811
108.813
109.016
109.015
109.013
109.01
109.006
109.001
108.992
109.014
109.015
109.016
109.019
109.023
109.029
109.035
108.953
108.957
108.961
108.967
108.97
108.973
108.971
108.881
108.88
108.879
108.879
108.88
108.883
108.884
108.863
108.861
108.859
108.857
108.855
108.854
108.857
108.17
108.16
108.152
108.15
108.151
108.158
108.157
108.703
108.7
108.697
108.693
108.689
108.685
108.682
108.621
108.615
108.607
108.597
108.589
108.581
108.577
108.406
108.413
108.422
108.431
108.439
108.444
108.447
108.249
108.255
108.262
108.271
108.279
108.287
108.296
108.207
108.206
108.206
108.209
108.217
108.233
108.246
109.683
109.687
109.692
109.696
109.697
109.697
109.686
107.605
107.616
107.649
107.699
107.765
107.839
107.875
108.576
108.456
108.304
108.147
108.001
107.899
107.86
110.597
110.526
110.405
110.308
110.273
110.299
110.371
108.755
109.087
109.43
109.766
110.044
110.248
110.366
108.955
108.847
108.679
108.497
108.316
108.155
108.016
109.256
109.578
109.885
110.143
110.33
110.431
110.466
109.636
109.635
109.634
109.633
109.63
109.628
109.622
109.597
109.598
109.597
109.595
109.59
109.591
109.59
109.154
109.068
108.917
108.749
108.579
108.418
108.306
107.46
107.586
107.732
107.871
107.993
108.07
108.122
109.326
109.243
109.089
108.919
108.72
108.559
108.386
107.449
107.571
107.729
107.894
108.046
108.18
108.233
109.351
109.279
109.135
108.979
108.823
108.663
108.508
107.573
107.702
107.859
108.025
108.172
108.273
108.318
109.539
109.444
109.288
109.105
108.911
108.712
108.519
107.784
107.916
108.065
108.212
108.327
108.379
108.379
109.179
109.095
108.947
108.783
108.641
108.52
108.397
107.809
107.898
108.036
108.171
108.284
108.368
108.331
109.07
108.912
108.678
108.429
108.201
108.038
107.995
106.826
106.973
107.165
107.365
107.564
107.747
107.897
107.106
107.251
107.459
107.668
107.884
108.069
108.22
108.416
108.837
109.261
109.661
109.993
110.229
110.384
110.79
110.688
110.521
110.372
110.305
110.314
110.369
109.222
109.54
109.846
110.108
110.301
110.407
110.45
110.421
110.402
110.395
110.393
110.392
110.369
110.321
110.455
110.477
110.501
110.503
110.471
110.411
110.349
110.006
110.027
110.064
110.092
110.108
110.1
110.089
110.267
110.255
110.237
110.21
110.195
110.192
110.213
109.851
109.878
109.909
109.942
109.958
109.957
109.948
110.122
110.106
110.077
110.045
110.03
110.021
110.015
109.826
109.835
109.846
109.856
109.855
109.849
109.846
109.927
109.92
109.905
109.889
109.885
109.886
109.887
109.807
109.805
109.8
109.796
109.787
109.773
109.766
109.791
109.792
109.791
109.791
109.796
109.804
109.81
109.712
109.709
109.704
109.7
109.695
109.688
109.687
109.72
109.723
109.725
109.726
109.729
109.733
109.729
109.619
109.619
109.619
109.618
109.614
109.609
109.613
109.629
109.631
109.634
109.637
109.642
109.649
109.655
109.547
109.547
109.546
109.544
109.54
109.536
109.533
109.558
109.559
109.561
109.563
109.565
109.567
109.566
109.461
109.461
109.461
109.461
109.46
109.46
109.46
109.502
109.502
109.502
109.501
109.502
109.502
109.499
109.388
109.389
109.391
109.391
109.39
109.39
109.392
109.415
109.416
109.417
109.418
109.42
109.423
109.423
109.329
109.329
109.329
109.328
109.325
109.323
109.319
109.348
109.349
109.349
109.35
109.351
109.352
109.349
109.249
109.249
109.25
109.251
109.252
109.254
109.254
109.3
109.3
109.299
109.298
109.295
109.294
109.291
109.175
109.177
109.18
109.183
109.184
109.187
109.188
109.222
109.221
109.22
109.22
109.219
109.221
109.221
109.117
109.119
109.12
109.121
109.121
109.122
109.121
109.154
109.154
109.153
109.153
109.151
109.15
109.148
109.067
109.066
109.065
109.065
109.064
109.063
109.062
109.094
109.094
109.094
109.094
109.094
109.094
109.095
108.99
108.99
108.991
108.992
108.993
108.995
108.997
109.032
109.031
109.031
109.031
109.03
109.029
109.027
108.924
108.924
108.925
108.925
108.924
108.923
108.921
108.953
108.953
108.954
108.956
108.957
108.96
108.965
108.889
108.886
108.881
108.876
108.871
108.867
108.866
108.861
108.864
108.867
108.873
108.878
108.884
108.885
108.846
108.841
108.835
108.828
108.821
108.816
108.815
108.809
108.813
108.817
108.824
108.83
108.834
108.833
108.745
108.745
108.746
108.747
108.747
108.75
108.752
108.792
108.792
108.794
108.795
108.794
108.791
108.787
108.644
108.65
108.658
108.667
108.675
108.68
108.682
108.748
108.743
108.738
108.733
108.729
108.726
108.725
108.562
108.571
108.581
108.592
108.602
108.61
108.615
108.69
108.684
108.675
108.667
108.659
108.652
108.647
108.523
108.528
108.533
108.538
108.543
108.546
108.547
108.603
108.599
108.593
108.588
108.583
108.58
108.578
108.5
108.5
108.499
108.498
108.497
108.496
108.497
108.514
108.514
108.513
108.513
108.515
108.516
108.515
108.467
108.464
108.461
108.456
108.452
108.449
108.45
108.451
108.453
108.456
108.46
108.464
108.467
108.468
108.402
108.399
108.394
108.389
108.385
108.381
108.381
108.413
108.415
108.417
108.419
108.42
108.419
108.412
108.257
108.257
108.261
108.266
108.271
108.276
108.287
108.376
108.367
108.36
108.354
108.351
108.354
108.365
108.303
108.282
108.251
108.218
108.183
108.145
108.11
108.079
108.094
108.113
108.132
108.153
108.169
108.174
109.013
109.397
109.756
110.057
110.276
110.4
110.443
111.623
111.386
111.085
110.822
110.633
110.52
110.47
109.204
109.206
109.208
109.209
109.209
109.209
109.208
109.211
109.207
109.202
109.196
109.189
109.185
109.179
108.852
109.236
109.602
109.93
110.173
110.32
110.39
111.332
111.151
110.897
110.667
110.5
110.405
110.37
111.622
111.368
111.056
110.797
110.602
110.492
110.444
109.265
109.266
109.266
109.267
109.268
109.268
109.268
109.246
109.245
109.245
109.243
109.24
109.239
109.236
109.752
109.758
109.767
109.776
109.779
109.775
109.771
109.755
109.754
109.749
109.742
109.738
109.737
109.73
108.833
109.222
109.596
109.927
110.177
110.33
110.411
111.638
111.403
111.101
110.83
110.628
110.506
110.452
111.554
111.322
111.015
110.766
110.568
110.45
110.411
108.364
108.333
108.283
108.225
108.162
108.111
108.081
107.801
107.85
107.904
107.965
108.021
108.077
108.123
108.309
108.288
108.269
108.229
108.179
108.103
108.025
109.384
109.384
109.383
109.382
109.38
109.38
109.383
109.325
109.325
109.326
109.328
109.33
109.332
109.335
108.79
108.789
108.786
108.783
108.782
108.781
108.781
108.727
108.73
108.734
108.738
108.742
108.744
108.746
108.924
108.925
108.927
108.928
108.927
108.928
108.928
109.988
109.982
109.968
109.955
109.947
109.942
109.945
109.87
109.876
109.885
109.893
109.893
109.887
109.891
108.612
108.618
108.626
108.636
108.645
108.654
108.659
108.681
108.674
108.664
108.654
108.644
108.636
108.632
109.29
109.292
109.293
109.293
109.293
109.294
109.298
108.696
108.697
108.699
108.702
108.706
108.71
108.713
108.568
108.574
108.583
108.591
108.598
108.604
108.606
108.505
108.504
108.505
108.506
108.509
108.51
108.51
108.32
108.329
108.34
108.352
108.362
108.37
108.376
109.658
109.66
109.658
109.656
109.655
109.659
109.657
109.871
109.868
109.858
109.847
109.84
109.834
109.831
109.975
110.009
110.061
110.096
110.117
110.117
110.117
110.107
110.099
110.079
110.058
110.052
110.048
110.053
108.414
108.32
108.202
108.094
107.998
107.931
107.921
108.458
108.381
108.283
108.193
108.116
108.06
108.035
110.488
110.446
110.417
110.398
110.386
110.353
110.294
110.361
110.414
110.465
110.488
110.467
110.4
110.337
110.308
110.292
110.272
110.239
110.217
110.214
110.2
107.629
107.697
107.772
107.843
107.911
107.974
108.015
109.337
109.633
109.922
110.165
110.341
110.435
110.467
111.618
111.394
111.109
110.852
110.658
110.532
110.468
111.597
111.372
111.09
110.84
110.653
110.537
110.485
109.343
109.643
109.93
110.178
110.353
110.445
110.475
108.468
108.46
108.45
108.44
108.432
108.425
108.421
108.559
108.56
108.562
108.562
108.561
108.557
108.554
108.377
108.371
108.362
108.354
108.349
108.347
108.349
108.512
108.507
108.502
108.496
108.492
108.488
108.487
107.387
107.481
107.593
107.702
107.802
107.893
107.96
108.706
108.691
108.672
108.648
108.629
108.614
108.604
108.908
108.797
108.64
108.475
108.305
108.154
108.064
109.449
109.449
109.448
109.445
109.44
109.433
109.427
109.023
109.033
109.049
109.067
109.084
109.095
109.099
109.464
109.468
109.477
109.488
109.498
109.503
109.507
109.438
109.441
109.444
109.447
109.453
109.462
109.472
108.286
108.3
108.317
108.333
108.346
108.355
108.358
108.792
108.799
108.81
108.823
108.837
108.847
108.854
109.863
109.863
109.87
109.889
109.911
109.935
109.95
108.982
108.972
108.959
108.944
108.93
108.92
108.915
108.935
108.932
108.93
108.923
108.913
108.903
108.894
109.258
109.263
109.27
109.279
109.287
109.29
109.29
107.354
107.465
107.611
107.765
107.907
108.02
108.074
108.412
108.422
108.437
108.452
108.467
108.479
108.485
109.674
109.672
109.67
109.668
109.665
109.658
109.646
109.403
109.398
109.392
109.385
109.379
109.374
109.377
109.36
109.359
109.357
109.353
109.349
109.345
109.347
107.279
107.402
107.553
107.697
107.823
107.916
107.954
109.402
109.29
109.113
108.919
108.724
108.528
108.347
109.346
109.25
109.076
108.89
108.702
108.522
108.38
107.36
107.543
107.748
107.957
108.14
108.256
108.286
109.149
109.06
108.893
108.72
108.543
108.393
108.306
107.275
107.418
107.598
107.797
107.991
108.141
108.222
108.94