/*--------------------------------*- C++ -*----------------------------------*\
  =========                 |
  \\      /  F ield         | OpenFOAM: The Open Source CFD Toolbox
   \\    /   O peration     | Website:  https://openfoam.org
    \\  /    A nd           | Version:  12
     \\/     M anipulation  |
\*---------------------------------------------------------------------------*/
FoamFile
{
    format      ascii;
    class       surfaceScalarField;
    location    "11000";
    object      phi;
}
// * * * * * * * * * * * * * * * * * * * * * * * * * * * * * * * * * * * * * //

dimensions      [0 3 -1 0 0 0 0];

internalField   nonuniform List<scalar> 
55962
(
3.2535e-07
-3.82884e-09
6.19222e-06
3.71173e-07
-3.20124e-09
8.14422e-06
4.32293e-07
-7.05582e-09
1.01141e-05
3.41086e-07
-6.51691e-09
1.25141e-05
2.9883e-07
-8.55483e-09
1.48361e-05
2.16937e-07
-1.00459e-08
1.70214e-05
-1.10077e-08
1.82664e-05
9.72553e-08
-6.06955e-07
-9.97719e-09
4.94495e-06
-4.32802e-06
-9.40137e-07
-8.2966e-09
6.88682e-06
-6.54534e-06
-1.15855e-06
-6.102e-09
8.72846e-06
-8.50394e-06
-1.21593e-06
-1.07241e-09
1.06593e-05
-1.06009e-05
-1.06214e-06
-2.89915e-09
1.27262e-05
-1.28771e-05
-7.72288e-07
-5.1415e-09
1.46268e-05
-1.49116e-05
1.14416e-08
1.56335e-05
-1.5991e-05
-4.26227e-07
-1.73764e-07
4.13147e-09
-4.44078e-06
4.61041e-06
-3.9934e-07
4.84797e-10
-6.74298e-06
6.96807e-06
-4.15019e-07
8.10301e-09
-9.02181e-06
9.02939e-06
-3.49138e-07
1.33327e-08
-1.11851e-05
1.11059e-05
-2.28658e-07
1.80682e-08
-1.34507e-05
1.33122e-05
-1.60686e-07
1.37909e-08
-1.5448e-05
1.53662e-05
-1.76926e-08
-1.65121e-05
1.64722e-05
-1.03061e-07
-5.04715e-08
4.39665e-09
4.30429e-06
-4.25822e-06
-1.57537e-07
1.33087e-08
6.79227e-06
-6.69852e-06
-1.4212e-07
6.99576e-09
9.06861e-06
-9.09103e-06
-9.72182e-08
1.82703e-08
1.12685e-05
-1.13317e-05
-6.63446e-08
-2.69222e-09
1.35413e-05
-1.35694e-05
-7.93989e-08
-7.27434e-09
1.56099e-05
-1.55895e-05
-4.90051e-08
1.66943e-05
-1.67133e-05
-1.13262e-08
-1.50315e-08
1.08467e-08
4.1362e-06
-4.13201e-06
-5.40972e-08
1.20801e-08
6.66428e-06
-6.6373e-06
-3.46208e-08
1.35225e-08
9.11728e-06
-9.15028e-06
-7.22245e-09
1.79925e-08
1.14778e-05
-1.15232e-05
-1.11072e-08
3.72302e-09
1.38102e-05
-1.381e-05
-4.38357e-08
6.76409e-09
1.59045e-05
-1.58785e-05
-1.00589e-08
1.70027e-05
-1.70302e-05
-6.36218e-09
-7.22859e-09
6.35014e-09
4.01846e-06
-4.01758e-06
-1.61417e-08
7.06578e-09
6.50116e-06
-6.49931e-06
3.45258e-09
1.01307e-08
9.04647e-06
-9.07619e-06
2.073e-08
1.0066e-08
1.15632e-05
-1.15905e-05
2.32146e-09
-2.91002e-09
1.3948e-05
-1.39267e-05
-3.13197e-08
1.82091e-10
1.60576e-05
-1.60242e-05
-4.54405e-09
1.71725e-05
-1.7184e-05
-1.5262e-08
-5.85793e-09
4.34657e-09
3.94106e-06
-3.93954e-06
-3.66406e-09
5.40324e-09
6.34619e-06
-6.35379e-06
1.78527e-08
7.7435e-09
8.90712e-06
-8.93638e-06
3.21531e-08
5.08462e-09
1.1572e-05
-1.15914e-05
9.90413e-09
-7.14978e-09
1.40197e-05
-1.39903e-05
-1.89031e-08
-4.27001e-09
1.61388e-05
-1.61058e-05
-1.40577e-08
1.72689e-05
-1.72653e-05
-8.47787e-09
-4.3141e-09
4.39699e-09
3.89381e-06
-3.89389e-06
1.01037e-09
5.68474e-09
6.22566e-06
-6.23667e-06
2.2839e-08
7.58692e-09
8.75614e-06
-8.78556e-06
3.88679e-08
3.81913e-09
1.15444e-05
-1.15642e-05
1.55214e-08
-6.09256e-09
1.40806e-05
-1.40512e-05
-8.1202e-09
-2.86827e-09
1.6214e-05
-1.61875e-05
-1.07548e-08
1.73531e-05
-1.73469e-05
-3.53249e-09
-2.81404e-09
4.04311e-09
3.87158e-06
-3.87281e-06
2.77291e-09
5.14658e-09
6.14882e-06
-6.15956e-06
2.27106e-08
6.69747e-09
8.63341e-06
-8.66004e-06
4.12207e-08
4.11126e-09
1.15066e-05
-1.15292e-05
1.89062e-08
-4.37712e-09
1.4162e-05
-1.41353e-05
-2.63893e-09
-2.64922e-09
1.63248e-05
-1.63006e-05
-6.59728e-09
1.74732e-05
-1.74702e-05
1.00007e-09
-1.95457e-09
1.47621e-09
3.87061e-06
-3.87013e-06
2.63756e-09
3.1305e-09
6.10834e-06
-6.11606e-06
1.86033e-08
4.16473e-09
8.5514e-06
-8.57153e-06
3.95766e-08
1.88912e-09
1.14649e-05
-1.14878e-05
2.06399e-08
-3.27579e-09
1.42582e-05
-1.42359e-05
6.16942e-10
-1.10202e-09
1.64656e-05
-1.64444e-05
1.82502e-10
1.76282e-05
-1.76236e-05
-4.13071e-09
-4.13178e-09
2.60177e-09
3.84551e-06
-3.84398e-06
-1.4853e-09
2.77558e-09
6.04101e-06
-6.04644e-06
1.02679e-08
3.4471e-09
8.43604e-06
-8.45124e-06
3.13178e-08
2.52058e-09
1.13326e-05
-1.13562e-05
1.78038e-08
-3.40142e-09
1.42503e-05
-1.42334e-05
-2.59284e-09
1.12689e-09
1.65066e-05
-1.64873e-05
-3.66799e-09
1.7677e-05
-1.76699e-05
-6.02575e-09
-1.1533e-09
4.58436e-10
3.84043e-06
-3.83974e-06
1.64922e-09
1.65096e-09
6.00636e-06
-6.01081e-06
1.15781e-08
2.42081e-09
8.36504e-06
-8.37739e-06
3.19472e-08
2.72827e-09
1.12292e-05
-1.12523e-05
2.33317e-08
-8.2679e-10
1.42629e-05
-1.42535e-05
3.52588e-09
4.28623e-09
1.6591e-05
-1.65755e-05
-3.46209e-09
1.77738e-05
-1.77662e-05
-6.21537e-10
-3.06627e-09
-4.82088e-09
3.83472e-06
-3.82683e-06
-2.13833e-09
-5.48213e-09
5.97613e-06
-5.97158e-06
4.74681e-09
-6.02327e-09
8.30189e-06
-8.30275e-06
2.21692e-08
-6.92485e-09
1.11219e-05
-1.11324e-05
2.032e-08
-1.16867e-08
1.42411e-05
-1.42276e-05
1.80272e-09
-7.94672e-09
1.66583e-05
-1.66319e-05
-2.02406e-08
1.78578e-05
-1.78323e-05
-3.43411e-09
-4.74454e-09
5.15269e-09
3.78812e-06
-3.78853e-06
-5.73093e-09
3.91893e-09
5.89312e-06
-5.89605e-06
-1.61295e-09
2.71621e-09
8.17279e-06
-8.17962e-06
1.172e-08
6.37211e-10
1.09277e-05
-1.09416e-05
1.47417e-08
-4.81574e-09
1.40776e-05
-1.40758e-05
-2.97336e-09
-3.67776e-09
1.65811e-05
-1.65597e-05
-8.79743e-09
1.77915e-05
-1.77659e-05
-1.97786e-08
-1.18659e-09
4.65651e-09
3.79921e-06
-3.80267e-06
-1.38052e-09
6.02348e-09
5.89251e-06
-5.89834e-06
8.98575e-10
6.29372e-09
8.15522e-06
-8.16379e-06
9.39218e-09
5.39644e-09
1.08798e-05
-1.08937e-05
1.31734e-08
1.39267e-09
1.40619e-05
-1.40671e-05
-5.48079e-09
-8.04167e-10
1.66862e-05
-1.66668e-05
-1.26352e-08
1.79241e-05
-1.7895e-05
-2.2016e-08
-7.32486e-09
-2.26299e-09
3.85611e-06
-3.84651e-06
-1.47689e-08
-1.43158e-09
5.95499e-06
-5.94611e-06
-2.1439e-08
-8.1162e-10
8.21954e-06
-8.21205e-06
-2.35588e-08
-8.03824e-10
1.09345e-05
-1.09316e-05
-2.43325e-08
-3.41804e-09
1.41375e-05
-1.41333e-05
-4.4412e-08
-5.19365e-09
1.68925e-05
-1.68672e-05
-1.53269e-08
1.81683e-05
-1.81296e-05
-6.78697e-08
-1.2936e-08
1.84306e-09
3.86056e-06
-3.84947e-06
-2.40872e-08
7.79891e-09
5.93555e-06
-5.93219e-06
-3.52503e-08
1.44662e-08
8.17828e-06
-8.18158e-06
-4.76717e-08
2.40536e-08
1.08562e-05
-1.08678e-05
-5.67369e-08
3.24202e-08
1.4021e-05
-1.40444e-05
-8.51595e-08
4.54273e-08
1.68636e-05
-1.68806e-05
5.55251e-08
1.81484e-05
-1.81797e-05
-1.09379e-07
-1.3721e-07
4.29611e-06
-2.24408e-07
-3.93449e-06
-2.69042e-07
6.30382e-06
-2.45837e-07
-5.92615e-06
-4.2017e-07
8.51649e-06
-2.55737e-07
-8.10962e-06
-5.92735e-07
1.11419e-05
-2.63563e-07
-1.07058e-05
-7.49861e-07
1.4158e-05
-2.55997e-07
-1.37449e-05
-8.65484e-07
1.68479e-05
-2.28281e-07
-1.6504e-05
1.79675e-05
-2.1877e-07
-1.77438e-05
-8.70404e-07
-4.36668e-07
-3.43418e-06
3.68687e-06
1.83972e-07
-7.51289e-07
-5.14492e-06
5.38645e-06
7.30859e-08
-1.14068e-06
-6.99312e-06
7.26565e-06
1.16863e-07
-1.55973e-06
-9.1659e-06
9.44051e-06
1.44437e-07
-1.91446e-06
-1.16657e-05
1.18837e-05
1.36709e-07
-2.10469e-06
-1.38958e-05
1.39658e-05
1.20201e-07
-1.48007e-05
1.46721e-05
3.04088e-08
-2.00651e-06
2.01749e-07
6.60179e-07
2.97286e-07
1.06337e-06
2.7204e-07
1.54861e-06
1.43584e-07
2.10446e-06
-7.93611e-08
2.7152e-06
-3.49219e-07
3.22195e-06
3.17289e-06
-3.55243e-07
-1.18419e-06
-1.9236e-06
6.79467e-06
-2.14406e-06
-2.80295e-06
9.14926e-06
-2.96312e-06
-3.78018e-06
1.18649e-05
-3.6015e-06
-4.94832e-06
1.50272e-05
-3.85988e-06
-6.29635e-06
1.84385e-05
-3.6715e-06
-7.57801e-06
2.13554e-05
-8.28071e-06
2.2152e-05
-2.87069e-06
-1.21113e-06
-5.24701e-06
6.6421e-06
-2.28153e-06
-7.9541e-06
9.09759e-06
-3.23926e-06
-1.07781e-05
1.18526e-05
-4.0093e-06
-1.41364e-05
1.50509e-05
-4.50877e-06
-1.78361e-05
1.84723e-05
-4.66783e-06
-2.1025e-05
2.13042e-05
-2.22489e-05
2.2138e-05
-4.52649e-06
-1.0467e-06
-3.16832e-06
-1.24713e-06
5.46215e-06
-2.02273e-06
-4.8495e-06
-2.21552e-06
8.04104e-06
-2.84644e-06
-6.6485e-06
-3.22982e-06
1.0702e-05
-3.49595e-06
-8.75462e-06
-4.42641e-06
1.38305e-05
-3.83608e-06
-1.11444e-05
-5.85737e-06
1.73419e-05
-3.73362e-06
-1.33589e-05
-7.17594e-06
2.04324e-05
-1.43579e-05
-7.71871e-06
2.16303e-05
-3.28727e-06
-8.12054e-07
-1.29589e-06
-2.37778e-06
4.48573e-06
-1.44545e-06
-2.37202e-06
-3.93959e-06
6.94501e-06
-1.97895e-06
-3.48025e-06
-5.48379e-06
9.49755e-06
-2.35495e-06
-4.7693e-06
-7.33884e-06
1.24841e-05
-2.44314e-06
-6.28621e-06
-9.52502e-06
1.58994e-05
-2.16886e-06
-7.64731e-06
-1.17278e-05
1.91008e-05
-8.12425e-06
-1.31113e-05
2.0795e-05
-1.72823e-06
7.3967e-07
-5.20388e-06
1.19284e-06
-7.67468e-06
1.39958e-06
-1.03355e-05
1.36129e-06
-1.34856e-05
1.06075e-06
-1.71301e-05
5.77253e-07
-2.05227e-05
-2.20803e-05
1.75403e-07
-4.66942e-07
-8.65241e-07
-1.79538e-06
3.12757e-06
-7.41758e-07
-2.06673e-06
-3.35863e-06
5.70017e-06
-9.40913e-07
-3.15461e-06
-4.81994e-06
8.17371e-06
-1.01506e-06
-4.38033e-06
-6.57523e-06
1.10297e-05
-9.13095e-07
-5.77679e-06
-8.68628e-06
1.43611e-05
-6.43194e-07
-7.06387e-06
-1.09168e-05
1.77107e-05
-7.50609e-06
-1.26105e-05
1.97164e-05
-2.4294e-07
8.83063e-07
-4.12608e-06
1.39279e-06
-6.51605e-06
1.73877e-06
-8.98438e-06
1.90648e-06
-1.18869e-05
1.85046e-06
-1.52458e-05
1.54842e-06
-1.84896e-05
-2.02841e-05
1.21506e-06
-3.55817e-07
-5.23931e-07
-1.32492e-06
2.20467e-06
-3.86471e-07
-1.81474e-06
-2.82814e-06
4.67354e-06
-3.31615e-07
-2.8962e-06
-4.23218e-06
7.07353e-06
-1.69644e-07
-4.08836e-06
-5.88692e-06
9.81331e-06
1.50767e-07
-5.48321e-06
-7.8799e-06
1.30427e-05
6.34356e-07
-6.81879e-06
-1.01044e-05
1.64396e-05
-7.48588e-06
-1.1763e-05
1.88218e-05
1.06146e-06
1.05402e-06
-3.37334e-06
1.66326e-06
-5.78261e-06
2.12021e-06
-8.17309e-06
2.43444e-06
-1.09778e-05
2.53599e-06
-1.4271e-05
2.3873e-06
-1.75869e-05
-1.96444e-05
1.93528e-06
-3.1419e-07
-4.09541e-07
-9.60422e-07
1.68415e-06
-1.76322e-07
-1.72091e-06
-2.49819e-06
4.08124e-06
2.03489e-08
-2.79062e-06
-3.88343e-06
6.47738e-06
2.84798e-07
-4.0487e-06
-5.40306e-06
9.18731e-06
6.97091e-07
-5.51441e-06
-7.24383e-06
1.2346e-05
1.19458e-06
-6.98912e-06
-9.24404e-06
1.57357e-05
-8.00406e-06
-1.08552e-05
1.81868e-05
1.86712e-06
1.14074e-06
-2.8752e-06
1.87172e-06
-5.28003e-06
2.48609e-06
-7.63717e-06
2.9312e-06
-1.03807e-05
3.15361e-06
-1.36167e-05
3.05321e-06
-1.69931e-05
-1.92808e-05
2.56689e-06
-3.25818e-07
-5.48673e-07
-7.10944e-07
1.58543e-06
-2.15054e-07
-1.85619e-06
-2.20753e-06
3.95295e-06
-2.96206e-08
-3.01537e-06
-3.5059e-06
6.33584e-06
2.16832e-07
-4.32101e-06
-4.95339e-06
9.02795e-06
5.65004e-07
-5.85942e-06
-6.67723e-06
1.21885e-05
1.00243e-06
-7.53679e-06
-8.49198e-06
1.55913e-05
-8.53622e-06
-9.88144e-06
1.81424e-05
1.27771e-06
1.20255e-06
-2.71164e-06
1.95936e-06
-5.11119e-06
2.53019e-06
-7.46963e-06
3.00154e-06
-1.01954e-05
3.30151e-06
-1.34032e-05
3.28364e-06
-1.6763e-05
-1.91065e-05
2.99866e-06
-3.4335e-07
-8.22564e-07
-6.60251e-07
1.82616e-06
-2.8044e-07
-2.1615e-06
-2.10137e-06
4.19996e-06
-1.51255e-07
-3.34483e-06
-3.34982e-06
6.56546e-06
5.44268e-08
-4.74113e-06
-4.71864e-06
9.25409e-06
3.84888e-07
-6.38303e-06
-6.37246e-06
1.2425e-05
8.72007e-07
-8.19816e-06
-8.11177e-06
1.58228e-05
-9.58532e-06
-9.19474e-06
1.83226e-05
1.32951e-06
1.1961e-06
-2.72961e-06
1.92484e-06
-5.09776e-06
2.50121e-06
-7.4271e-06
2.94326e-06
-1.01366e-05
3.21722e-06
-1.33342e-05
3.20615e-06
-1.66791e-05
-1.90267e-05
2.76605e-06
-4.53706e-07
-1.24768e-06
-6.5808e-07
2.35946e-06
-6.10644e-07
-2.58562e-06
-2.08503e-06
4.82759e-06
-6.73322e-07
-3.83823e-06
-3.30969e-06
7.2106e-06
-6.08234e-07
-5.30316e-06
-4.71025e-06
9.94833e-06
-3.4394e-07
-7.08105e-06
-6.34448e-06
1.31612e-05
6.60024e-08
-9.01204e-06
-7.95222e-06
1.65543e-05
-1.05241e-05
-8.85623e-06
1.88845e-05
5.61796e-07
1.05599e-06
-2.96392e-06
1.7184e-06
-5.34939e-06
2.2205e-06
-7.69016e-06
2.62577e-06
-1.04271e-05
2.82579e-06
-1.36535e-05
2.70306e-06
-1.70011e-05
-1.92181e-05
2.20236e-06
-4.44615e-07
-1.77121e-06
-9.04804e-07
3.12063e-06
-7.11335e-07
-3.20237e-06
-2.19505e-06
5.66414e-06
-8.978e-07
-4.55244e-06
-3.38641e-06
8.12531e-06
-9.72661e-07
-6.15018e-06
-4.73212e-06
1.09572e-05
-8.8419e-07
-8.06377e-06
-6.28038e-06
1.42557e-05
-5.93155e-07
-1.01646e-05
-7.73224e-06
1.76059e-05
-1.17124e-05
-8.31118e-06
1.9602e-05
-1.71589e-07
1.03218e-06
-3.46147e-06
1.65593e-06
-5.91115e-06
2.13269e-06
-8.33889e-06
2.44517e-06
-1.11729e-05
2.51624e-06
-1.44793e-05
2.22079e-06
-1.78214e-05
-1.98737e-05
1.5259e-06
-8.64212e-07
-2.27028e-06
-1.42795e-06
4.56244e-06
-1.45415e-06
-3.82244e-06
-2.53948e-06
6.95186e-06
-1.95625e-06
-5.33222e-06
-3.62711e-06
9.46142e-06
-2.31175e-06
-7.12035e-06
-4.92935e-06
1.24052e-05
-2.41674e-06
-9.21242e-06
-6.46782e-06
1.57852e-05
-2.15173e-06
-1.13456e-05
-7.89495e-06
1.89756e-05
-1.27744e-05
-8.24005e-06
2.06081e-05
-1.74543e-06
9.66336e-07
-4.14142e-06
1.51756e-06
-6.56872e-06
1.87143e-06
-9.07248e-06
2.03544e-06
-1.20165e-05
1.96612e-06
-1.54235e-05
1.65086e-06
-1.87626e-05
-2.06543e-05
1.21958e-06
-1.27003e-06
-2.26299e-06
-2.60969e-06
6.14271e-06
-2.33353e-06
-3.49273e-06
-3.95085e-06
8.50709e-06
-3.20802e-06
-4.83558e-06
-5.39117e-06
1.11012e-05
-3.80526e-06
-6.42296e-06
-7.11258e-06
1.41328e-05
-3.98909e-06
-8.22649e-06
-9.0975e-06
1.75078e-05
-3.75254e-06
-9.81156e-06
-1.09508e-05
2.05258e-05
-1.01234e-05
-1.20819e-05
2.14946e-05
-3.04189e-06
2.02152e-07
-4.38874e-06
3.32378e-07
-6.42591e-06
3.47551e-07
-8.63093e-06
2.00709e-07
-1.12244e-05
-1.24623e-07
-1.41975e-05
-6.00656e-07
-1.69135e-05
-1.79065e-05
-1.09831e-06
3.96367e-07
-4.434e-06
6.49543e-07
-6.74351e-06
7.87747e-07
-9.15648e-06
7.54403e-07
-1.20086e-05
5.12795e-07
-1.53237e-05
6.91318e-08
-1.84021e-05
-1.98212e-05
-4.31546e-07
1.25163e-06
-7.74577e-06
1.84484e-06
-1.07628e-05
2.08257e-06
-1.42456e-05
1.91546e-06
-1.83957e-05
1.29196e-06
-2.307e-05
2.42394e-07
-2.71513e-05
-2.87583e-05
-9.66903e-07
3.28654e-07
6.18126e-06
3.79338e-07
8.13295e-06
4.41442e-07
1.0099e-05
3.53207e-07
1.24981e-05
3.07809e-07
1.48221e-05
2.20425e-07
1.70068e-05
1.82274e-05
1.17779e-07
-6.18016e-07
5.0056e-06
-4.39756e-06
-9.55102e-07
6.98703e-06
-6.65824e-06
-1.18116e-06
8.87363e-06
-8.65368e-06
-1.24435e-06
1.08494e-05
-1.07872e-05
-1.0973e-06
1.29632e-05
-1.31132e-05
-8.17472e-07
1.49065e-05
-1.51915e-05
1.59403e-05
-1.62839e-05
-4.62453e-07
-3.76617e-07
-4.75746e-06
5.12201e-06
1.20671e-08
-7.43924e-07
-7.11154e-06
7.46683e-06
1.2015e-08
-8.40821e-07
-9.46782e-06
9.5605e-06
4.22412e-09
-7.93535e-07
-1.17442e-05
1.16992e-05
-2.2751e-09
-5.78364e-07
-1.4199e-05
1.399e-05
-6.2109e-09
-2.8974e-07
-1.64124e-05
1.613e-05
-6.19127e-09
-1.7564e-05
1.73406e-05
-1.56932e-08
-5.06048e-08
1.97635e-07
5.04963e-08
2.61395e-07
-1.88275e-07
1.31744e-07
-4.6454e-07
-2.40872e-08
-7.39026e-07
-2.22942e-07
-1.03686e-06
-3.75286e-07
-1.35355e-06
-1.59122e-06
-4.07778e-07
-1.76506e-07
-4.62106e-06
4.80169e-06
-4.02106e-07
-7.03167e-06
7.25776e-06
-4.09191e-07
-9.41448e-06
9.42966e-06
-3.33776e-07
-1.16686e-05
1.16066e-05
-1.95783e-07
-1.40281e-05
1.39082e-05
-1.01032e-07
-1.61291e-05
1.60482e-05
-1.72343e-05
1.71855e-05
-6.99414e-08
2.80533e-07
2.20423e-07
5.14281e-07
2.01411e-07
4.66898e-07
1.93404e-07
2.83597e-07
2.13857e-07
5.23741e-08
1.93127e-07
-1.0642e-07
1.5961e-07
1.10841e-07
-1.11021e-07
-1.07322e-07
-4.49282e-06
4.60272e-06
-2.58305e-09
-2.66559e-07
-6.96692e-06
7.13609e-06
-9.93949e-09
-2.54459e-07
-9.41414e-06
9.40798e-06
-5.93975e-09
-1.79527e-07
-1.16963e-05
1.16296e-05
-8.18589e-09
-1.04431e-07
-1.40306e-05
1.39602e-05
-4.64548e-09
-7.94831e-08
-1.61205e-05
1.60954e-05
1.01513e-10
-1.73049e-05
1.71939e-05
4.63853e-08
-1.48026e-08
1.81747e-07
1.27126e-07
3.75183e-07
9.7407e-08
3.35601e-07
5.51011e-08
1.78618e-07
6.72429e-08
1.57937e-08
4.03699e-08
-7.73898e-08
2.08892e-08
-6.05893e-08
-1.36205e-07
-5.62377e-08
-4.42796e-06
4.48859e-06
-1.52994e-07
-6.97387e-06
7.08394e-06
-1.31013e-07
-9.48928e-06
9.4743e-06
-6.4594e-08
-1.18301e-05
1.17819e-05
-3.28801e-08
-1.41799e-05
1.41455e-05
-4.87569e-08
-1.62944e-05
1.6303e-05
-1.74909e-05
1.74202e-05
-2.70536e-08
1.08006e-07
6.67556e-08
2.3235e-07
3.78726e-08
2.05785e-07
-5.47358e-08
8.63803e-08
-8.1135e-08
-2.67906e-08
-1.06581e-07
-6.79168e-08
-1.57859e-07
-2.64207e-07
-1.00714e-07
-2.84549e-08
-4.35757e-06
4.39577e-06
-9.74812e-09
-8.77528e-08
-6.94979e-06
7.02559e-06
-1.65068e-08
-6.22903e-08
-9.52906e-06
9.51607e-06
-1.24703e-08
-6.95066e-09
-1.19416e-05
1.19067e-05
-2.04937e-08
4.39187e-09
-1.43133e-05
1.4304e-05
-1.98285e-09
-2.1527e-08
-1.64497e-05
1.64792e-05
-3.612e-09
-1.76571e-05
1.76141e-05
1.60415e-08
5.4224e-09
7.47853e-08
5.62375e-08
1.71549e-07
3.73894e-08
1.61829e-07
-4.50433e-08
7.38616e-08
-7.16485e-08
-5.96995e-09
-8.79988e-08
-2.71045e-08
-1.25524e-07
-2.19589e-07
-4.44558e-08
-1.4653e-08
-4.27514e-06
4.30064e-06
-5.09856e-08
-6.88142e-06
6.92984e-06
-2.42491e-08
-9.50714e-06
9.49393e-06
2.05527e-08
-1.19884e-05
1.19615e-05
1.87485e-08
-1.43773e-05
1.43829e-05
-1.33454e-08
-1.65261e-05
1.6565e-05
-1.77363e-05
1.77086e-05
4.26938e-09
6.34028e-08
5.72356e-08
1.50158e-07
5.74128e-08
1.60017e-07
-9.31287e-10
9.32066e-08
-1.48259e-08
2.50614e-08
-5.22044e-09
6.43825e-09
-2.8271e-08
-1.2156e-07
5.84665e-09
-8.12401e-09
-4.19936e-06
4.21518e-06
-7.69605e-09
-2.76998e-08
-6.79276e-06
6.8206e-06
-8.25853e-09
-1.56108e-09
-9.44788e-06
9.43331e-06
-1.15677e-08
3.49701e-08
-1.19981e-05
1.19748e-05
-1.32966e-08
2.33561e-08
-1.44048e-05
1.44165e-05
-6.99102e-11
-1.00269e-08
-1.65645e-05
1.66009e-05
-3.04667e-09
-1.77739e-05
1.77481e-05
7.79409e-09
8.01797e-09
5.18574e-08
4.94155e-08
1.31186e-07
5.77443e-08
1.54439e-07
2.2799e-08
1.00985e-07
1.69166e-08
4.27141e-08
3.6334e-08
1.86611e-08
2.45343e-08
-4.47088e-08
-1.94655e-09
-4.96837e-09
-4.1381e-06
4.14942e-06
-1.22445e-08
-6.7046e-06
6.71894e-06
1.51035e-08
-9.37657e-06
9.35935e-06
4.54337e-08
-1.19971e-05
1.19768e-05
2.68076e-08
-1.44272e-05
1.44429e-05
-7.36122e-09
-1.65953e-05
1.66297e-05
-1.78059e-05
1.77852e-05
8.77732e-09
3.87428e-08
3.83381e-08
1.06112e-07
4.86294e-08
1.37834e-07
2.50178e-08
9.61989e-08
1.93751e-08
4.50705e-08
4.04145e-08
2.13863e-08
2.92747e-08
-3.66295e-08
1.73808e-10
-2.6907e-09
-4.09366e-06
4.10176e-06
-5.41077e-09
-1.13514e-09
-6.62603e-06
6.6312e-06
-6.72103e-09
2.76003e-08
-9.30302e-06
9.28357e-06
-9.28737e-09
5.40923e-08
-1.19973e-05
1.19784e-05
-7.61923e-09
3.19053e-08
-1.4458e-05
1.44755e-05
4.66817e-09
8.35316e-11
-1.66368e-05
1.66673e-05
1.24175e-09
-1.78459e-05
1.783e-05
9.90958e-09
6.07948e-09
2.69994e-08
2.87595e-08
8.0827e-08
3.90788e-08
1.17183e-07
1.99746e-08
8.52455e-08
1.15078e-08
3.96639e-08
3.05461e-08
1.57373e-08
1.68309e-08
-4.85501e-08
3.6189e-09
-1.57381e-09
-4.06196e-06
4.06789e-06
4.57313e-09
-6.55678e-06
6.55604e-06
3.37635e-08
-9.22868e-06
9.20723e-06
5.79121e-08
-1.19955e-05
1.19765e-05
3.30588e-08
-1.44947e-05
1.45124e-05
1.4941e-09
-1.66835e-05
1.67108e-05
-1.78946e-05
1.78764e-05
5.61432e-09
1.87657e-08
2.10333e-08
6.43452e-08
2.88377e-08
1.03804e-07
1.54356e-08
8.14542e-08
5.23368e-09
4.02059e-08
2.20567e-08
1.71435e-08
6.93056e-09
-5.37648e-08
6.33165e-09
-1.34639e-09
-4.03761e-06
4.04329e-06
-4.3355e-09
6.59441e-09
-6.49512e-06
6.49245e-06
-5.2755e-09
3.50991e-08
-9.15245e-06
9.13125e-06
-7.29803e-09
5.77385e-08
-1.19868e-05
1.19685e-05
-4.36902e-09
3.12336e-08
-1.45325e-05
1.45518e-05
7.24535e-09
3.58251e-10
-1.67331e-05
1.67593e-05
4.68302e-09
-1.79455e-05
1.79333e-05
1.49666e-08
-2.43207e-09
1.29934e-08
1.72803e-08
5.02834e-08
2.36291e-08
8.95666e-08
1.54923e-08
7.44676e-08
4.75801e-09
3.49383e-08
1.9401e-08
9.27333e-09
3.29034e-09
-5.03428e-08
-9.47067e-09
-1.9453e-11
-4.0191e-06
4.02351e-06
9.72983e-09
-6.44123e-06
6.43716e-06
3.85499e-08
-9.07706e-06
9.05583e-06
6.25219e-08
-1.19711e-05
1.19509e-05
3.67793e-08
-1.45692e-05
1.45889e-05
7.99695e-09
-1.67822e-05
1.68081e-05
-1.79952e-05
1.79893e-05
3.13439e-09
9.49974e-09
1.46991e-08
4.08403e-08
1.98876e-08
8.01963e-08
1.48265e-08
7.24194e-08
5.20512e-09
3.7461e-08
1.74992e-08
1.31656e-08
1.4322e-09
-4.96369e-08
8.78581e-10
-8.9446e-11
-4.00561e-06
4.00957e-06
-3.8698e-09
9.30251e-09
-6.3964e-06
6.39193e-06
-4.92006e-09
3.61834e-08
-9.00577e-06
8.98558e-06
-6.69273e-09
6.03652e-08
-1.19484e-05
1.19277e-05
-3.40781e-09
3.44365e-08
-1.46076e-05
1.46272e-05
6.25262e-09
5.33004e-09
-1.68336e-05
1.686e-05
2.66032e-09
-1.80459e-05
1.80473e-05
1.02571e-08
-6.31223e-09
7.17519e-09
1.07307e-08
3.32591e-08
1.46799e-08
7.09953e-08
1.23292e-08
7.1012e-08
2.48051e-09
4.00423e-08
1.22767e-08
1.86041e-08
-4.03817e-09
-5.00677e-08
1.20896e-08
2.04457e-10
-3.99677e-06
4.00061e-06
9.41371e-09
-6.35947e-06
6.35541e-06
3.413e-08
-8.94177e-06
8.92375e-06
5.86444e-08
-1.1921e-05
1.19006e-05
3.50067e-08
-1.46473e-05
1.46666e-05
7.89654e-09
-1.68924e-05
1.69169e-05
-1.81072e-05
1.81082e-05
2.55731e-10
4.0537e-09
8.74029e-09
2.47159e-08
1.17946e-08
5.83734e-08
1.01492e-08
6.41175e-08
9.46928e-10
3.57413e-08
8.29508e-09
1.2842e-08
-9.47446e-09
-4.70777e-08
5.76402e-11
-4.18682e-10
-3.98977e-06
3.99377e-06
-3.58271e-09
7.8512e-09
-6.32697e-06
6.32383e-06
-5.1263e-09
2.95541e-08
-8.88276e-06
8.86753e-06
-6.47397e-09
5.37465e-08
-1.18854e-05
1.18652e-05
-3.92389e-09
3.10725e-08
-1.46819e-05
1.4702e-05
2.61333e-09
3.59494e-09
-1.69443e-05
1.69743e-05
-2.61116e-09
-1.816e-05
1.81749e-05
-3.78878e-09
-7.56152e-09
2.03773e-09
8.80761e-09
1.89229e-08
1.1551e-08
4.87299e-08
1.11854e-08
6.02148e-08
3.6521e-09
3.5222e-08
9.64916e-09
1.25358e-08
-4.68907e-09
-4.39774e-08
4.76884e-09
-8.35743e-10
-3.98404e-06
3.98636e-06
6.30615e-09
-6.29777e-06
6.29376e-06
2.53865e-08
-8.82746e-06
8.81255e-06
5.00709e-08
-1.18409e-05
1.18181e-05
3.08113e-08
-1.47088e-05
1.47248e-05
5.38449e-09
-1.69963e-05
1.70206e-05
-1.82111e-05
1.82263e-05
-9.63236e-09
7.09987e-10
9.0153e-09
1.42149e-08
1.25579e-08
4.01295e-08
1.41548e-08
5.51375e-08
9.27435e-09
3.29483e-08
1.53312e-08
1.11723e-08
-1.38646e-10
-2.92388e-08
4.18901e-09
-1.05805e-09
-3.97682e-06
3.9782e-06
-3.1973e-10
4.86682e-09
-6.26872e-06
6.264e-06
-1.20068e-09
2.16624e-08
-8.77336e-06
8.75858e-06
-2.0124e-09
4.74639e-08
-1.17848e-05
1.17599e-05
-9.51005e-10
3.13966e-08
-1.47229e-05
1.47337e-05
5.25434e-09
8.98975e-09
-1.70354e-05
1.70562e-05
1.63984e-09
-1.82566e-05
1.82635e-05
4.0383e-09
-1.96062e-09
1.16589e-09
8.37448e-09
1.34648e-08
1.2738e-08
3.66929e-08
1.59571e-08
5.583e-08
1.41937e-08
3.71092e-08
2.06908e-08
1.61033e-08
6.16319e-09
-2.27709e-08
8.65079e-09
-1.70698e-09
-3.96608e-06
3.97039e-06
2.55433e-09
-6.23691e-06
6.23542e-06
1.65538e-08
-8.71673e-06
8.70618e-06
4.0872e-08
-1.17155e-05
1.16937e-05
2.71492e-08
-1.47196e-05
1.47299e-05
6.19608e-09
-1.70609e-05
1.70829e-05
-1.82864e-05
1.82933e-05
-4.38934e-09
1.15457e-09
1.09577e-08
1.15072e-08
1.67378e-08
3.17849e-08
2.15753e-08
5.28359e-08
2.33657e-08
3.62637e-08
3.06528e-08
1.46743e-08
1.69163e-08
-1.01146e-08
1.8745e-09
-2.33891e-09
-3.95225e-06
3.95801e-06
-3.41972e-09
8.28429e-10
-6.20197e-06
6.20298e-06
-4.17652e-09
1.27686e-08
-8.65658e-06
8.64941e-06
-4.7713e-09
3.55658e-08
-1.16339e-05
1.16153e-05
-4.26283e-09
2.46264e-08
-1.4696e-05
1.47065e-05
4.36645e-10
4.62794e-09
-1.70679e-05
1.70931e-05
-5.19883e-09
-1.82964e-05
1.83068e-05
-3.39087e-09
-2.3882e-09
2.51609e-09
1.56266e-08
1.18152e-08
2.415e-08
2.97796e-08
3.16338e-08
5.16203e-08
3.79949e-08
3.79231e-08
4.75908e-08
1.63569e-08
3.66262e-08
1.85342e-08
-5.23776e-09
-2.82384e-09
-3.9409e-06
3.94419e-06
-2.36631e-10
-6.17118e-06
6.17024e-06
1.0472e-08
-8.60196e-06
8.59367e-06
3.27726e-08
-1.15537e-05
1.15341e-05
2.59483e-08
-1.46679e-05
1.46739e-05
7.15726e-09
-1.70749e-05
1.7098e-05
-1.83095e-05
1.83155e-05
-2.31765e-09
2.90702e-09
1.41985e-08
1.0982e-08
2.37309e-08
2.70045e-08
3.14243e-08
4.97234e-08
3.89324e-08
3.74687e-08
5.08798e-08
1.40933e-08
4.15429e-08
2.68274e-08
-1.54372e-08
-1.35317e-09
-3.9406e-06
3.93809e-06
3.85587e-09
1.53317e-09
-6.15654e-06
6.15035e-06
3.29869e-09
1.17849e-08
-8.56902e-06
8.55599e-06
2.78317e-09
3.36423e-08
-1.14983e-05
1.14739e-05
2.55094e-09
3.05148e-08
-1.46625e-05
1.46596e-05
6.08506e-09
1.38372e-08
-1.71118e-05
1.71296e-05
-1.16732e-09
-1.83527e-05
1.83536e-05
2.92347e-09
1.00183e-08
2.18808e-10
3.37395e-09
6.19117e-09
7.73247e-09
1.93868e-08
1.14561e-08
4.08173e-08
1.43724e-08
3.40265e-08
1.81577e-08
1.50048e-08
5.23803e-09
-1.42226e-08
-7.94687e-09
1.20572e-09
-3.95187e-06
3.94584e-06
4.78171e-09
-6.16131e-06
6.15226e-06
1.42972e-08
-8.56337e-06
8.54783e-06
3.43506e-08
-1.14776e-05
1.14506e-05
3.34805e-08
-1.46932e-05
1.46824e-05
1.62836e-08
-1.71981e-05
1.72074e-05
-1.84527e-05
1.84412e-05
7.5886e-09
-6.47279e-09
-7.29678e-09
-6.34142e-09
-1.10923e-08
1.81914e-09
-1.5539e-08
2.05313e-08
-2.24298e-08
1.76041e-08
-3.07096e-08
2.23633e-09
-5.3128e-08
-8.60043e-08
-1.09207e-08
3.22985e-09
-3.96581e-06
3.9619e-06
6.81158e-10
7.69032e-09
-6.1741e-06
6.16742e-06
2.2235e-09
1.68318e-08
-8.57073e-06
8.55808e-06
3.50509e-09
3.51651e-08
-1.14739e-05
1.14501e-05
5.45059e-09
3.62323e-08
-1.47372e-05
1.47247e-05
1.1379e-08
1.67695e-08
-1.73038e-05
1.73132e-05
1.00775e-08
-1.85713e-05
1.85645e-05
2.06495e-08
2.91628e-09
-8.83574e-09
-1.11361e-08
-1.16914e-08
-1.89884e-08
-6.1878e-09
-2.84036e-08
1.12255e-08
-4.06494e-08
1.21408e-08
-5.57021e-08
-8.34164e-10
-8.34914e-08
-1.14606e-07
-1.63373e-08
2.31337e-09
-3.97267e-06
3.97552e-06
6.46414e-09
-6.1787e-06
6.17847e-06
1.48322e-08
-8.56912e-06
8.56347e-06
3.16775e-08
-1.1459e-05
1.14428e-05
3.57636e-08
-1.47586e-05
1.47497e-05
1.83421e-08
-1.73891e-05
1.74028e-05
-1.86692e-05
1.86728e-05
5.95908e-09
-6.7901e-09
-3.97871e-09
-8.60311e-09
-9.46595e-09
-3.12059e-09
-1.65139e-08
1.36219e-08
-2.5686e-08
1.80923e-08
-3.82991e-08
5.73841e-09
-6.34992e-08
-9.36919e-08
-5.30693e-09
4.07417e-10
-3.96957e-06
3.97692e-06
-7.74951e-09
3.82496e-09
-6.16854e-06
6.17306e-06
-7.92797e-09
1.11725e-08
-8.54782e-06
8.54764e-06
-7.15757e-09
2.6691e-08
-1.14189e-05
1.14087e-05
-5.36767e-09
3.48448e-08
-1.47381e-05
1.47307e-05
-7.80048e-10
1.97831e-08
-1.7429e-05
1.74447e-05
-5.78135e-10
-1.87184e-05
1.87289e-05
8.73867e-09
6.20398e-10
-1.15456e-09
7.10268e-09
1.11252e-09
7.66067e-09
8.99694e-09
7.75745e-09
2.59437e-08
7.02933e-09
3.3541e-08
3.95927e-09
2.01084e-08
-1.27953e-08
-3.1505e-08
5.98529e-09
-4.23976e-09
-3.96281e-06
3.97171e-06
-4.60827e-09
-6.15031e-06
6.15671e-06
-1.09891e-09
-8.51474e-06
8.51753e-06
9.48126e-09
-1.13625e-05
1.13573e-05
1.55953e-08
-1.46856e-05
1.46809e-05
-7.66364e-09
-1.74317e-05
1.74541e-05
-1.87256e-05
1.87472e-05
-4.18947e-08
2.08174e-09
1.2031e-08
6.61806e-09
1.82103e-08
1.54833e-08
2.40307e-08
3.18843e-08
2.98398e-08
4.1901e-08
3.51322e-08
2.65492e-08
2.83856e-08
1.47553e-08
1.50121e-08
-8.86737e-09
-3.96466e-06
3.97323e-06
3.08286e-10
-1.43032e-08
-6.13969e-06
6.14579e-06
-6.57017e-10
-1.60264e-08
-8.49009e-06
8.49277e-06
-9.46991e-10
-1.11582e-08
-1.13151e-05
1.13105e-05
-2.67823e-10
-6.97784e-09
-1.46333e-05
1.46263e-05
2.86503e-09
-2.5163e-08
-1.74377e-05
1.74517e-05
4.22681e-09
-1.87453e-05
1.87524e-05
2.18527e-08
-5.41754e-08
-2.88006e-09
9.93545e-09
-3.85278e-09
1.8006e-08
-1.51583e-09
2.51035e-08
7.21532e-09
3.34925e-08
1.25613e-08
4.21863e-08
-8.92443e-09
3.79028e-08
2.70689e-08
-3.40122e-08
-1.67153e-08
-3.95763e-06
3.97209e-06
-3.20422e-08
-6.11261e-06
6.1265e-06
-4.40754e-08
-8.44096e-06
8.45219e-06
-4.87373e-08
-1.12343e-05
1.12382e-05
-4.86514e-08
-1.45289e-05
1.45254e-05
-6.34599e-08
-1.73774e-05
1.7387e-05
-1.86975e-05
1.86949e-05
-7.61925e-08
-9.77936e-10
1.65879e-08
-5.12558e-10
3.27137e-08
1.0311e-09
5.0266e-08
7.26241e-09
6.99165e-08
1.11181e-08
9.35461e-08
-1.22676e-08
9.76431e-08
7.2988e-08
-3.03335e-08
-3.08128e-08
-3.86884e-06
3.90369e-06
-4.03718e-09
-5.71683e-08
-5.97828e-06
6.01135e-06
-6.71544e-09
-7.84211e-08
-8.25051e-06
8.2809e-06
-9.13092e-09
-8.79736e-08
-1.09702e-05
1.09915e-05
-1.17451e-08
-8.30914e-08
-1.41839e-05
1.41916e-05
-1.24983e-08
-8.17965e-08
-1.70184e-05
1.70324e-05
-1.53101e-08
-1.83327e-05
1.8334e-05
-8.75083e-09
-7.44034e-08
2.3036e-08
8.02162e-08
3.69805e-08
1.34281e-07
4.63482e-08
1.92308e-07
5.44436e-08
2.59864e-07
5.73921e-08
3.38511e-07
3.36065e-08
3.92393e-07
3.90118e-07
5.7354e-09
-5.22287e-08
-3.67763e-06
3.73171e-06
-9.51903e-08
-5.68954e-06
5.7403e-06
-1.31048e-07
-7.85026e-06
7.90058e-06
-1.53681e-07
-1.04299e-05
1.04765e-05
-1.56325e-07
-1.34783e-05
1.35133e-05
-1.5604e-07
-1.62201e-05
1.62653e-05
-1.74766e-05
1.7502e-05
-1.25989e-07
5.93443e-08
1.66714e-07
9.86481e-08
2.82511e-07
1.23143e-07
4.06144e-07
1.37926e-07
5.46881e-07
1.34998e-07
7.16216e-07
9.2151e-08
8.55151e-07
9.03505e-07
4.61288e-08
-6.02045e-08
-3.48942e-06
3.45305e-06
9.65763e-08
-1.11525e-07
-5.39457e-06
5.36474e-06
8.11572e-08
-1.63184e-07
-7.44034e-06
7.41291e-06
7.90918e-08
-2.16716e-07
-9.8757e-06
9.8572e-06
7.20403e-08
-2.64857e-07
-1.275e-05
1.27434e-05
5.46899e-08
-2.98809e-07
-1.5389e-05
1.54043e-05
1.85894e-08
-1.65866e-05
1.66095e-05
-1.3299e-08
-3.08495e-07
5.3377e-08
1.88909e-07
8.57608e-08
3.13344e-07
9.53719e-08
4.5063e-07
8.8686e-08
6.07527e-07
6.11567e-08
7.90909e-07
-4.28908e-09
9.41748e-07
9.81056e-07
-6.98681e-08
8.72864e-09
4.01077e-06
-4.2439e-06
-1.43386e-08
6.17749e-06
-6.40026e-06
-1.11306e-07
8.60557e-06
-8.76434e-06
-2.89876e-07
1.14947e-05
-1.15797e-05
-5.02431e-07
1.48345e-05
-1.48779e-05
-6.7528e-07
1.78549e-05
-1.79103e-05
1.92158e-05
-1.92895e-05
-8.20325e-07
-1.67188e-06
-2.06312e-06
-2.98051e-06
-3.27671e-06
-4.06789e-06
-4.55266e-06
-4.88371e-06
-6.08515e-06
-5.20497e-06
-7.9142e-06
-4.81468e-06
-9.68677e-06
-1.06377e-05
-3.71959e-06
-2.33652e-07
-5.57198e-07
-4.12076e-07
-8.571e-07
-5.82435e-07
-1.18107e-06
-7.38454e-07
-1.5665e-06
-8.40203e-07
-2.03278e-06
-8.43292e-07
-2.50286e-06
-2.7873e-06
-7.35929e-07
7.08442e-07
2.43461e-06
3.37064e-06
1.06997e-06
3.25761e-06
4.56769e-06
1.4199e-06
4.02984e-06
5.78846e-06
1.60351e-06
5.01394e-06
7.21887e-06
1.60776e-06
6.00643e-06
8.7746e-06
1.34611e-06
6.98754e-06
1.02036e-05
7.56571e-06
1.10383e-05
8.77801e-07
7.82049e-07
2.81723e-06
2.91447e-06
1.23196e-06
3.80494e-06
3.93191e-06
1.5432e-06
4.85192e-06