/*--------------------------------*- C++ -*----------------------------------*\
  =========                 |
  \\      /  F ield         | OpenFOAM: The Open Source CFD Toolbox
   \\    /   O peration     | Website:  https://openfoam.org
    \\  /    A nd           | Version:  12
     \\/     M anipulation  |
\*---------------------------------------------------------------------------*/
FoamFile
{
    format      ascii;
    class       volVectorField;
    location    "11000";
    object      U;
}
// * * * * * * * * * * * * * * * * * * * * * * * * * * * * * * * * * * * * * //

dimensions      [0 1 -1 0 0 0 0];

internalField   nonuniform List<vector> 
24749
(
(-0.00335217 4.76693 -0.066563)
(-0.0186288 4.87781 -0.029568)
(-0.0299927 4.93492 -0.0324578)
(-0.0339054 4.96242 -0.016)
(-0.0336436 4.98246 -0.00642125)
(-0.0322875 4.99374 -1.74719e-05)
(-0.0281053 4.99938 0.00352195)
(-0.0134506 4.10365 0.709693)
(0.0466004 4.74919 0.315013)
(0.0768402 4.94237 0.183952)
(0.10619 5.01202 0.136394)
(0.114513 5.07912 0.0726679)
(0.123537 5.11817 0.0264166)
(0.10897 5.1081 -0.000829639)
(-0.0347704 3.94615 0.197759)
(-0.00618379 4.74417 0.180662)
(0.03868 4.99747 0.0242057)
(0.0472863 5.04291 -0.0203472)
(0.0445219 5.07698 -0.0379745)
(0.0319667 5.10896 -0.0224332)
(0.0326474 5.11227 -0.00158716)
(-0.0180007 3.7066 0.0825214)
(-0.00758029 4.64666 0.0796861)
(0.0165386 5.01314 0.00222484)
(0.0186345 5.09936 -0.0273251)
(0.0149662 5.13543 -0.0148554)
(0.00969064 5.16351 -0.0023777)
(0.0138808 5.1609 -0.00147381)
(-0.00843387 3.53098 0.0349798)
(-0.00553563 4.52479 0.0387514)
(0.00525537 4.99001 -0.0022412)
(0.00631168 5.13438 -0.021202)
(0.00338126 5.17574 -0.00726897)
(0.00383948 5.20289 -0.000545852)
(0.00841803 5.19945 -0.00446655)
(-0.0037537 3.41587 0.0183051)
(-0.00396308 4.40301 0.0219141)
(0.000243557 4.93532 0.000195625)
(0.000891295 5.15232 -0.01324)
(-0.00134888 5.20633 -0.00114468)
(0.00264423 5.23386 0.0019291)
(0.00526534 5.23114 -0.00377289)
(-0.00155479 3.34787 0.00990793)
(-0.00199809 4.29867 0.011895)
(-0.00159064 4.86014 0.00134519)
(-0.00183087 5.15686 -0.00786566)
(-0.00320682 5.23313 0.00164132)
(0.000795986 5.26153 0.00222448)
(0.00386603 5.25959 -0.00112388)
(-0.000495613 3.30695 0.00456352)
(-0.00076083 4.21584 0.0058319)
(-0.00179745 4.77749 0.000889842)
(-0.00330208 5.14688 -0.00486854)
(-0.00427246 5.25712 0.00220083)
(0.00029787 5.28827 0.00150207)
(0.00176361 5.28617 -0.00104314)
(-0.000271148 3.28015 0.00186934)
(-0.000373217 4.15263 0.00278153)
(-0.00150018 4.69802 0.000678647)
(-0.00390253 5.1211 -0.00292697)
(-0.00483356 5.27687 0.00223917)
(-0.000120431 5.31302 0.00104657)
(0.000978399 5.31132 -0.00177597)
(-0.000534254 3.26471 0.00220214)
(-0.000264487 4.10607 0.00236992)
(-0.00124918 4.63162 0.00128746)
(-0.00373421 5.08282 -0.000595309)
(-0.00520853 5.29287 0.00212674)
(-5.06036e-05 5.33831 0.000767247)
(-2.02074e-05 5.33659 -0.0019127)
(1.778e-05 3.24797 0.00173469)
(-8.76072e-05 4.06564 0.0020992)
(-0.000616963 4.57403 0.00157352)
(-0.00290639 5.03238 0.00013546)
(-0.00455237 5.29949 0.00236287)
(-0.00021754 5.35998 0.000213649)
(0.000902663 5.35925 -0.001222)
(-0.000130415 3.23982 0.00110131)
(-0.000248173 4.03629 0.00123679)
(-0.000571176 4.52884 0.00103923)
(-0.00268165 4.98068 0.000191168)
(-0.00486086 5.30058 0.00147981)
(-0.00125541 5.38254 -0.000691275)
(0.00108988 5.38336 -0.00106293)
(-0.000887575 3.23327 0.00582766)
(-0.000986829 4.01356 0.00543874)
(-0.00107504 4.49196 0.00487958)
(-0.00240893 4.93091 0.0038882)
(-0.00461387 5.29372 0.00430369)
(-0.00172102 5.40363 0.00174595)
(7.70706e-05 5.40646 0.0013288)
(0.000820623 3.22229 -0.00149843)
(0.000542461 3.99116 8.6008e-05)
(0.000185719 4.45786 0.0010863)
(-0.000829959 4.88292 0.00169113)
(-0.00334342 5.27691 0.00268975)
(-0.000965906 5.42116 0.00104412)
(0.00117015 5.42841 0.000852938)
(0.000535029 3.22158 -0.00334515)
(0.000629454 3.9778 -0.00240975)
(0.000447261 4.43348 -0.00120555)
(-0.000220692 4.84499 -0.000101509)
(-0.00253403 5.25569 0.00117572)
(-0.000771103 5.43871 0.000675233)
(0.00281468 5.45045 0.00277655)
(-0.000547344 3.24227 0.00163068)
(0.000695206 3.98709 0.00132367)
(0.0015741 4.43253 0.00114248)
(0.0023528 4.83103 0.00130524)
(0.00182247 5.24512 0.00176051)
(0.00422434 5.46601 0.000760858)
(0.005077 5.48484 0.00155918)
(0.00227914 3.26376 -0.00165584)
(0.00310797 4.0012 -0.00360764)
(0.00366364 4.44196 -0.00477883)
(0.00631116 4.83198 -0.00601289)
(0.00661708 5.24325 -0.00627972)
(0.0110208 5.50186 -0.0069348)
(0.0158903 5.52904 -0.00606282)
(-0.0140268 3.65597 0.165815)
(-0.00716898 4.30519 0.132919)
(0.0116419 4.72009 0.109908)
(0.04284 5.08595 0.0899228)
(0.0703216 5.46099 0.0707817)
(0.108226 5.70384 0.0543472)
(0.150926 5.71461 0.0493084)
(0.0684499 3.88144 -0.11143)
(0.0903889 4.6418 -0.0634365)
(0.125113 5.0804 -0.0623961)
(0.194174 5.44878 -0.051434)
(0.277451 5.80389 -0.0287625)
(0.364336 6.00372 -0.00233679)
(0.349068 5.91975 0.00109564)
(0.0950338 3.7581 0.0299379)
(0.122215 4.45283 0.0295522)
(0.126668 4.8581 0.0350702)
(0.124928 5.21065 0.0440912)
(0.150055 5.57283 0.0440317)
(0.184503 5.81142 0.0373109)
(0.222543 5.79426 0.0150521)
(-0.108455 4.74509 -0.14882)
(-0.105803 5.16936 -0.153789)
(0.00270497 5.50891 -0.136885)
(0.161581 5.79841 -0.119954)
(0.287858 6.06165 -0.102658)
(0.425921 6.16016 -0.0769069)
(0.453708 6.03419 -0.0526511)
(0.061578 4.63087 -0.278156)
(0.165614 5.10686 -0.0656598)
(0.267361 5.47145 -0.0542165)
(0.359225 5.78687 -0.0439635)
(0.474723 6.05252 -0.0362649)
(0.593146 6.15542 -0.040082)
(0.590582 6.00626 -0.0203385)
(0.244189 4.02124 0.629831)
(0.274996 4.7342 0.487644)
(0.302306 5.12899 0.42547)
(0.344879 5.47895 0.312039)
(0.397717 5.80714 0.186112)
(0.452335 6.00741 0.0535907)
(0.398504 5.89821 0.0143162)
(0.43145 3.2726 0.349826)
(0.449627 4.10042 0.336618)
(0.429351 4.55946 0.279433)
(0.425283 4.95465 0.213876)
(0.425883 5.33778 0.13897)
(0.425325 5.62159 0.0766017)
(0.39431 5.71591 0.0692775)
(0.420931 3.48705 0.0925664)
(0.452623 4.25068 0.0452191)
(0.435481 4.68523 0.0546267)
(0.422699 5.06019 0.060549)
(0.397403 5.4424 0.0459486)
(0.381591 5.71652 0.0188983)
(0.325218 5.76554 0.0679031)
(0.500453 2.4959 0.0930073)
(0.439972 3.52897 0.113034)
(0.414427 4.04604 0.132995)
(0.404418 4.47717 0.105523)
(0.401686 4.904 0.106012)
(0.403599 5.27547 0.0967213)
(0.411987 5.47313 0.097042)
(0.420976 2.83281 -0.0437041)
(0.409424 3.7823 -0.0837274)
(0.384154 4.28156 -0.0594095)
(0.374675 4.68857 -0.0230444)
(0.371363 5.09069 0.00729456)
(0.369241 5.43273 0.0425257)
(0.364941 5.58984 0.0551529)
(0.449269 1.7984 -0.109193)
(0.329997 2.99922 -0.0475505)
(0.336207 3.5872 -0.000679097)
(0.353804 4.05335 0.0210725)
(0.366108 4.5168 0.0415443)
(0.40876 4.96056 0.0785152)
(0.44316 5.28318 0.102966)
(0.245459 2.16822 -0.15348)
(0.264026 3.30034 -0.171901)
(0.259213 3.85965 -0.137264)
(0.273582 4.29977 -0.0919072)
(0.296629 4.73992 -0.0450517)
(0.327999 5.14787 0.000842371)
(0.350866 5.41478 0.0242175)
(0.239984 1.40432 -0.143925)
(0.208023 2.70001 -0.103406)
(0.290497 3.34138 -0.0764905)
(0.291087 3.82955 -0.0377531)
(0.323531 4.30373 -0.0052611)
(0.406925 4.77305 0.0342282)
(0.435079 5.13808 0.0480174)
(0.0982948 1.71063 -0.186186)
(0.117438 2.929 -0.170052)
(0.135226 3.54307 -0.136357)
(0.178722 4.00872 -0.0922778)
(0.22823 4.4673 -0.0494338)
(0.29452 4.92159 -0.00647697)
(0.329514 5.27369 0.0189513)
(0.153228 1.33495 -0.0221072)
(0.143908 2.63122 -0.0289156)
(0.18727 3.27894 -0.0215754)
(0.252295 3.77222 -0.0139135)
(0.265896 4.24871 -0.0124438)
(0.342963 4.72173 -0.00172453)
(0.405158 5.09699 -0.0298069)
(0.00470493 1.57084 -0.101045)
(0.00972395 2.80301 -0.112815)
(0.0423559 3.44674 -0.0901615)
(0.0986191 3.92229 -0.0620171)
(0.162443 4.38015 -0.0396266)
(0.255437 4.83411 -0.00327177)
(0.287147 5.19337 -0.0132555)
(0.20885 1.52745 0.0959781)
(0.210091 2.76492 0.064165)
(0.223514 3.37241 0.0371652)
(0.290702 3.84829 0.0220105)
(0.288133 4.31711 0.00895084)
(0.346939 4.78343 -0.0211427)
(0.437066 5.13874 -0.0646202)
(-0.0130704 1.57877 0.0443279)
(-0.00973753 2.79522 0.0469281)
(0.0291839 3.42657 0.0369355)
(0.0851064 3.9012 0.0321957)
(0.156129 4.36082 0.0245839)
(0.235057 4.81654 0.0144897)
(0.313183 5.17954 0.000789299)
(0.453793 1.91876 0.113368)
(0.340254 3.07617 0.0659405)
(0.339297 3.6367 0.0330586)
(0.33375 4.08996 0.0150648)
(0.331222 4.5396 0.00390652)
(0.358973 4.97074 -0.0377452)
(0.37353 5.27223 -0.0359798)
(0.0654674 1.78921 0.161459)
(0.0783015 2.98154 0.1609)
(0.0951533 3.5717 0.139494)
(0.137154 4.02664 0.10327)
(0.186226 4.47606 0.0744738)
(0.248404 4.91793 0.0253803)
(0.288347 5.24626 0.0148306)
(0.587551 2.52164 -0.076401)
(0.47546 3.52892 -0.111824)
(0.441015 4.03806 -0.126663)
(0.416065 4.46124 -0.106098)
(0.402953 4.87856 -0.108676)
(0.402649 5.25307 -0.0836811)
(0.408866 5.45353 -0.1499)
(0.307869 2.17574 0.203352)
(0.319315 3.30615 0.21067)
(0.292383 3.86311 0.173305)
(0.283736 4.29639 0.115252)
(0.283308 4.72317 0.0633995)
(0.3017 5.12313 0.0176512)
(0.301287 5.37909 0.012474)
(0.354716 3.35859 -0.299556)
(0.3978 4.16481 -0.299723)
(0.424016 4.58771 -0.272024)
(0.428569 4.95045 -0.212382)
(0.424529 5.31266 -0.144817)
(0.421885 5.59044 -0.0809245)
(0.400169 5.66069 -0.103798)
(0.431416 2.75459 0.0316739)
(0.461847 3.7121 0.0773712)
(0.417448 4.21877 0.0497335)
(0.402163 4.63051 0.0194159)
(0.386423 5.03535 -0.0109538)
(0.376679 5.39257 -0.0314063)
(0.366753 5.56866 -0.0685238)
(0.135671 4.35925 -0.435443)
(0.18797 4.82355 -0.371555)
(0.248238 5.15875 -0.307963)
(0.323153 5.46204 -0.216414)
(0.389992 5.75222 -0.139718)
(0.451896 5.91635 -0.0583115)
(0.49181 5.84608 0.00312165)
(0.25574 3.86328 -0.177049)
(0.316259 4.59369 -0.15887)
(0.297878 4.98743 -0.14223)
(0.296102 5.32057 -0.116573)
(0.308742 5.65905 -0.0943288)
(0.374114 5.90148 -0.0577247)
(0.39771 5.84263 -0.0717547)
(0.396065 3.30312 -0.101147)
(0.445775 4.14804 -0.069733)
(0.43962 4.58885 -0.0792179)
(0.433883 4.96774 -0.0869787)
(0.426871 5.35586 -0.0688788)
(0.402274 5.63776 -0.0373302)
(0.397434 5.68757 -0.0389547)
(0.313287 4.10632 0.343998)
(0.550655 4.73038 0.26776)
(0.463559 5.11821 0.216675)
(0.466484 5.46035 0.18072)
(0.420605 5.77933 0.130377)
(0.419007 5.96294 0.0653728)
(0.352871 5.88695 0.0418634)
(-0.00302491 4.76551 0.0718817)
(-0.0183306 4.87765 0.032799)
(-0.029959 4.9346 0.0380277)
(-0.0342011 4.96194 0.0197392)
(-0.0341401 4.98202 0.0102302)
(-0.0326011 4.99341 0.00322151)
(-0.0288948 4.99893 -0.000329375)
(-0.0147771 4.09575 -0.705528)
(0.0449598 4.74356 -0.311534)
(0.0753233 4.94087 -0.183248)
(0.105812 5.01097 -0.139506)
(0.115035 5.07911 -0.0743055)
(0.124601 5.11914 -0.0269078)
(0.112738 5.10931 -0.00304584)
(-0.0820352 4.15286 -0.379785)
(-0.0107533 4.8154 -0.268719)
(0.0711027 5.00929 -0.0889317)
(0.0866239 5.02261 -0.0175235)
(0.0950068 5.04918 0.0382038)
(0.0785164 5.07245 0.0695419)
(0.0282183 5.06154 0.0479162)
(-0.196473 4.08815 -0.641254)
(-0.208004 4.7023 -0.378699)
(-0.143154 4.90658 -0.156973)
(-0.0941673 4.94116 -0.0591593)
(-0.0439662 4.98535 0.0240688)
(0.00545581 5.02661 0.0613429)
(0.0246932 5.03904 0.0797121)
(-0.0412582 3.9467 -0.213555)
(-0.0108528 4.74497 -0.190087)
(0.034031 4.99928 -0.032755)
(0.0428209 5.04405 0.0122678)
(0.0382257 5.07808 0.0310249)
(0.030189 5.11096 0.0196895)
(0.012056 5.11258 0.00772672)
(-0.0721077 3.97882 -0.320749)
(-0.0752685 4.72591 -0.206647)
(-0.0444581 4.98725 -0.0391193)
(-0.0260814 5.0388 0.0211188)
(0.00716947 5.07965 0.0560169)
(0.0369814 5.11716 0.0444795)
(0.0154115 5.12036 0.0265738)
(-0.0264914 3.81521 -0.133818)
(-0.0104539 4.69751 -0.139233)
(0.0238808 5.01196 -0.0114152)
(0.0304001 5.07422 0.0285772)
(0.0230516 5.10908 0.0276377)
(0.0193956 5.13836 0.0142625)
(0.0142212 5.13691 0.0244808)
(-0.0505323 3.83349 -0.210817)
(-0.0604951 4.67138 -0.143054)
(-0.0371064 4.99315 -0.0111811)
(-0.0188895 5.05892 0.0264667)
(-0.00107875 5.09663 0.0390645)
(0.0169022 5.12455 0.0199993)
(0.0112178 5.12068 0.0203147)
(-0.0212541 3.70563 -0.0933241)
(-0.0113728 4.64547 -0.0980516)
(0.0123511 5.0147 -0.00784493)
(0.0155059 5.10148 0.0170789)
(0.00880698 5.13761 0.017484)
(0.00867341 5.16553 0.00523079)
(0.00827291 5.16228 0.0156382)
(-0.0426569 3.72554 -0.146505)
(-0.0519272 4.62851 -0.111332)
(-0.0319425 5.00264 -0.00385735)
(-0.0160303 5.09246 0.0280717)
(-0.00617897 5.13135 0.0245126)
(0.00732378 5.15889 0.0102713)
(0.00818471 5.1551 0.0218424)
(-0.0170073 3.60932 -0.0698536)
(-0.0110906 4.58512 -0.0741133)
(0.00546734 5.00651 -0.00863394)
(0.00753781 5.12138 0.0131108)
(0.00096792 5.15938 0.0105246)
(0.00404257 5.18684 0.000284092)
(0.00456916 5.18383 0.00965081)
(-0.0328125 3.62516 -0.104514)
(-0.0394462 4.57264 -0.0875592)
(-0.0258489 4.99577 -0.0038429)
(-0.0142679 5.11352 0.0230483)
(-0.00843701 5.15407 0.0147034)
(0.00192959 5.1807 0.00256044)
(-0.000151197 5.17802 0.0169147)
(-0.012362 3.52613 -0.0528535)
(-0.00948007 4.52096 -0.054079)
(0.00137416 4.9888 -0.00936976)
(0.00306857 5.13537 0.0103741)
(-0.00237519 5.17713 0.00590017)
(0.00141428 5.20437 -0.00206847)
(0.00129893 5.20091 0.00735353)
(-0.0226439 3.53852 -0.0752491)
(-0.0284344 4.51173 -0.0706313)
(-0.0201272 4.97852 -0.00494059)
(-0.0118751 5.12916 0.0187484)
(-0.00863131 5.17322 0.00833968)
(-0.000736107 5.19905 -0.00235955)
(0.000127066 5.19703 0.0126889)
(-0.00807585 3.45936 -0.0372488)
(-0.00744964 4.45729 -0.0392393)
(-0.000916057 4.9634 -0.00852956)
(0.000534528 5.14552 0.00930893)
(-0.00374192 5.1929 0.00445723)
(0.000986956 5.22039 -0.0016304)
(0.00131598 5.21717 0.00730705)
(-0.0147533 3.46577 -0.0527601)
(-0.0203175 4.44829 -0.0541432)
(-0.0159806 4.95132 -0.00537621)
(-0.0102966 5.13918 0.0159555)
(-0.0080028 5.18883 0.0051891)
(-0.000943799 5.21484 -0.00276284)
(-0.000633344 5.21262 0.0101554)
(-0.00562833 3.40745 -0.0278224)
(-0.00612627 4.39688 -0.0301049)
(-0.0025906 4.93096 -0.00837835)
(-0.00153794 5.15191 0.00757)
(-0.00497839 5.20725 0.00305451)
(0.000749199 5.23502 -0.00176957)
(0.00159707 5.23233 0.0057979)
(-0.0102643 3.41041 -0.0378833)
(-0.0153482 4.38886 -0.0410876)
(-0.0136922 4.92025 -0.0061007)
(-0.00977996 5.14633 0.0129341)
(-0.00803965 5.20395 0.00314549)
(-0.00130056 5.23036 -0.00279543)
(-0.00161985 5.22845 0.00993074)
(-0.00409567 3.36847 -0.0205803)
(-0.00499747 4.34153 -0.0230357)
(-0.00373951 4.89375 -0.0081295)
(-0.00321977 5.15508 0.00618411)
(-0.00582195 5.2209 0.00232582)
(-7.79738e-05 5.24921 -0.00121585)
(-0.000378838 5.2469 0.00573556)
(-0.00782155 3.36862 -0.0280218)
(-0.0119529 4.33369 -0.031611)
(-0.012125 4.88411 -0.00704296)
(-0.00952189 5.14952 0.010174)
(-0.00802679 5.21747 0.00142695)
(-0.0017561 5.24459 -0.00258323)
(-0.000189642 5.24322 0.00818684)
(-0.00297527 3.33903 -0.015571)
(-0.0038071 4.29146 -0.0175838)
(-0.00418471 4.85333 -0.00740947)
(-0.00419352 5.15462 0.00523092)
(-0.00590578 5.23367 0.00209191)
(-0.000869794 5.26243 -0.000489906)
(0.000799421 5.2603 0.00575068)
(-0.00588726 3.33757 -0.0205927)
(-0.00951131 4.28373 -0.0240334)
(-0.0107271 4.84463 -0.0069984)
(-0.0095722 5.14906 0.00848512)
(-0.00819909 5.2301 0.0010061)
(-0.00220239 5.25826 -0.00159601)
(0.000353551 5.25727 0.00744636)
(-0.00247512 3.31633 -0.0130173)
(-0.00304767 4.24703 -0.0144363)
(-0.00423864 4.81136 -0.00730026)
(-0.00482327 5.1506 0.00374234)
(-0.00581408 5.24618 0.00142728)
(-0.000194245 5.27594 -0.00041688)
(9.58779e-05 5.27389 0.0054346)
(-0.00474531 3.31435 -0.0161368)
(-0.00747517 4.2395 -0.019083)
(-0.00952751 4.80366 -0.00728987)
(-0.00919677 5.14487 0.00633435)
(-0.00758386 5.24215 0.000317228)
(-0.00171159 5.2716 -0.00121511)
(-0.000242158 5.2702 0.00714562)
(-0.00214246 3.2979 -0.0106105)
(-0.00264726 4.20794 -0.012005)
(-0.00439365 4.76899 -0.00711708)
(-0.0056186 5.14258 0.00267163)
(-0.00672974 5.25746 0.00069198)
(-0.00139885 5.28934 -0.000697783)
(-5.06386e-05 5.28763 0.00368774)
(-0.00404969 3.29632 -0.0133407)
(-0.00613297 4.20066 -0.0157262)
(-0.00876106 4.76238 -0.00762977)
(-0.00913206 5.13667 0.00418633)
(-0.00805776 5.25361 -0.000467898)
(-0.00233657 5.28498 -0.00155516)
(-0.000334492 5.28465 0.00551144)
(-0.00164601 3.2831 -0.00850457)
(-0.00207515 4.17396 -0.00948412)
(-0.00384943 4.72748 -0.00632169)
(-0.00563824 5.1303 0.0017085)
(-0.00636663 5.26764 0.000440543)
(-0.00146963 5.30136 -0.000742341)
(-7.14742e-05 5.29949 0.00318608)
(-0.00336209 3.28104 -0.0103531)
(-0.00506413 4.16609 -0.0124604)
(-0.00796574 4.72106 -0.00713623)
(-0.00888562 5.12322 0.00303892)
(-0.00825592 5.26329 -0.000529524)
(-0.00358821 5.29699 -0.000747703)
(-0.000360435 5.29664 0.00497892)
(-0.00148909 3.27173 -0.00739332)
(-0.00191084 4.14463 -0.00822456)
(-0.00347804 4.68888 -0.0060525)
(-0.00575258 5.11466 0.000603777)
(-0.00640649 5.27695 -4.14284e-05)
(-0.00152172 5.31457 -0.000166446)
(6.46196e-05 5.31248 0.00341733)
(-0.00312578 3.26981 -0.00908945)
(-0.00449689 4.13699 -0.0108809)
(-0.00697879 4.68263 -0.00714711)
(-0.00853157 5.10681 0.00137892)
(-0.00795212 5.27268 -0.00111852)
(-0.00319804 5.30956 -0.000893695)
(-0.000502591 5.30932 0.00385542)
(-0.00136086 3.26226 -0.00625847)
(-0.00169822 4.11876 -0.00744717)
(-0.00307125 4.65319 -0.00595772)
(-0.00549319 5.09504 -0.000548976)
(-0.00620681 5.28449 -0.000893865)
(-0.00134697 5.32626 -0.00173678)
(-0.000731757 5.32423 0.000513123)
(-0.00299502 3.26044 -0.00836214)
(-0.00393767 4.1113 -0.00987975)
(-0.00608823 4.647 -0.00733267)
(-0.00809401 5.08752 -0.000272328)
(-0.00800911 5.28044 -0.00180801)
(-0.0035445 5.32153 -0.00159823)
(-0.000550896 5.32168 0.00299404)
(-0.000819177 3.25466 -0.00407535)
(-0.00121239 4.09628 -0.00558181)
(-0.0023979 4.62106 -0.00459606)
(-0.00492598 5.07304 -0.000395495)
(-0.00597099 5.2909 -0.000398408)
(-0.00116481 5.33903 -0.000496945)
(-0.000723049 5.33714 0.00118944)
(-0.00216373 3.25264 -0.00666516)
(-0.00289307 4.08854 -0.00806151)
(-0.00469261 4.61433 -0.0067209)
(-0.00694617 5.06528 -0.000869034)
(-0.00725694 5.28665 -0.00211175)
(-0.00271658 5.33365 -0.00147763)
(-0.000973415 5.33362 0.00152481)
(-0.000484858 3.24756 -0.00349579)
(-0.000936158 4.07587 -0.00438742)
(-0.00183148 4.59153 -0.00375253)
(-0.00442184 5.0483 -0.000557341)
(-0.00588532 5.29488 -0.000114235)
(-0.00144215 5.35019 -0.000370968)
(-0.000835116 5.3487 0.00186958)
(-0.00129867 3.24593 -0.00485661)
(-0.00206166 4.06868 -0.00621944)
(-0.0035992 4.58494 -0.00533696)
(-0.00607144 5.04114 -0.000763855)
(-0.00709406 5.29113 -0.00131482)
(-0.00244838 5.34527 -0.000426105)
(-0.00154744 5.346 0.00258518)
(-0.000650761 3.24162 -0.00504196)
(-0.000946449 4.05778 -0.00482915)
(-0.00154667 4.56497 -0.0041784)
(-0.00382985 5.02224 -0.00147296)
(-0.00544944 5.29712 -0.00058074)
(-0.000764391 5.36158 -0.000619864)
(-0.00119302 5.36023 0.00240834)
(-0.00088957 3.23968 -0.00450826)
(-0.00122466 4.05082 -0.0058351)
(-0.00256799 4.55819 -0.00504768)
(-0.00500298 5.01529 -0.00152846)
(-0.00641807 5.29328 -0.00130423)
(-0.00159308 5.35616 -0.000316362)
(-0.00162106 5.35693 0.00302507)
(-0.000718471 3.23585 -0.00501697)
(-0.000926508 4.0417 -0.00521347)
(-0.00146413 4.54091 -0.00460784)
(-0.00344349 4.9957 -0.00250136)
(-0.00535121 5.29741 -0.00141692)
(-0.000789229 5.3725 -0.00148841)
(-2.03961e-05 5.37218 0.000944289)
(-1.01217e-05 3.23467 -0.00539681)
(-0.0011231 4.03549 -0.00647168)
(-0.00142389 4.53457 -0.00576012)
(-0.00419834 4.98931 -0.00289613)
(-0.00604968 5.29386 -0.00210024)
(-0.000762995 5.36754 -0.000948838)
(-0.00185653 5.36924 0.00244342)
(-0.000139361 3.2306 -0.00243877)
(-0.000453656 4.02724 -0.003438)
(-0.00100534 4.51891 -0.00331474)
(-0.00296517 4.9691 -0.00199746)
(-0.00519545 5.29577 -0.00101041)
(-0.00102171 5.38326 -0.000928169)
(-0.000730241 5.38405 0.00234997)
(0.000342018 3.22954 -0.00466446)
(-0.000845263 4.02109 -0.00583148)
(-0.00107555 4.51245 -0.00542824)
(-0.00377919 4.96271 -0.00334273)
(-0.00591407 5.2919 -0.00234834)
(-0.000747298 5.37819 -0.00128221)
(-0.00151542 5.38067 0.00259029)
(0.000452537 3.227 0.00148324)
(0.000189842 4.01468 1.80809e-05)
(-0.000495433 4.49911 -0.00051821)
(-0.00245524 4.94323 -6.59083e-05)
(-0.00524846 5.29219 0.000517615)
(-0.00167857 5.39334 -4.80837e-05)
(-0.00137807 5.39562 0.00242122)
(-0.000327394 3.22574 -0.00225385)
(-0.00120251 4.00837 -0.00359796)
(-0.00203781 4.49236 -0.00369017)
(-0.00398009 4.93671 -0.00235647)
(-0.00649065 5.28787 -0.00130383)
(-0.00197832 5.38857 -0.000388247)
(-0.00222294 5.39247 0.00324611)
(0.000312951 3.22481 0.00272266)
(0.000182581 4.00429 0.00156264)
(-0.000372813 4.48163 0.00100786)
(-0.00212797 4.91881 0.00124354)
(-0.0050691 5.28715 0.00196098)
(-0.00168984 5.40364 0.00183903)
(-0.000753317 5.40712 0.00558158)
(-0.00153542 3.22336 -0.000730983)
(-0.00234824 3.99807 -0.00179939)
(-0.00278575 4.47486 -0.00207518)
(-0.00421853 4.91224 -0.00123135)
(-0.00651882 5.28196 -0.000161368)
(-0.00241765 5.3985 0.00086843)
(-0.00136553 5.40317 0.00457816)
(-0.000497929 3.22264 -6.25436e-05)
(-0.000454198 3.99513 -0.000244973)
(-0.000978425 4.46585 -0.000222926)
(-0.00237552 4.89563 0.000367712)
(-0.00526695 5.28006 0.00148514)
(-0.00225476 5.41301 0.00183595)
(-0.00104808 5.4184 0.00452107)
(-0.00291059 3.22153 -0.00139875)
(-0.00332033 3.98968 -0.00189624)
(-0.00357299 4.45981 -0.00185605)
(-0.00465713 4.88982 -0.00103525)
(-0.00689376 5.27462 0.000276401)
(-0.00348958 5.40811 0.0016233)
(-0.0011209 5.41545 0.00492869)
(-0.00130404 3.22033 -0.00441158)
(-0.00108302 3.98662 -0.00359511)
(-0.00146897 4.45138 -0.00283764)
(-0.00251299 4.874 -0.00172555)
(-0.00526705 5.27111 -0.00013219)
(-0.00287573 5.42197 0.000618052)
(-0.000541407 5.43016 0.0024772)
(-0.00312372 3.219 -0.00366659)
(-0.00304801 3.98166 -0.00366105)
(-0.00333474 4.44584 -0.00317004)
(-0.00421684 4.86861 -0.00209628)
(-0.00651452 5.26518 -0.000370037)
(-0.00378287 5.41731 0.00134513)
(-0.00165177 5.42691 0.00420857)
(-0.00145708 3.21739 -0.0064967)
(-0.00140825 3.97835 -0.00582576)
(-0.00168434 4.43777 -0.00470747)
(-0.00246293 4.85372 -0.00333604)
(-0.00495501 5.25997 -0.00153453)
(-0.00349131 5.42996 -0.000193192)
(-0.00215105 5.44111 0.00186116)
(-0.00240685 3.21635 -0.00593713)
(-0.00198478 3.97369 -0.00554617)
(-0.00245808 4.43259 -0.00471163)
(-0.00335927 4.84859 -0.00348282)
(-0.00589785 5.25425 -0.00157162)
(-0.00449736 5.42589 0.000605017)
(-0.00132067 5.43834 0.00222825)
(-0.000664598 3.21588 -0.00457107)
(-0.000634988 3.97152 -0.00492709)
(-0.000701949 4.42595 -0.00451323)
(-0.000962335 4.83556 -0.0035927)
(-0.00287223 5.24742 -0.00206748)
(-0.0013147 5.43731 -0.00106787)
(0.00248113 5.45056 -0.000259774)
(-0.000956921 3.21324 -0.00507993)
(-0.000279854 3.96536 -0.00538047)
(-0.00134957 4.41967 -0.00472046)
(-0.00205984 4.82936 -0.0036014)
(-0.00468624 5.24089 -0.00179655)
(-0.00386464 5.43279 0.000203499)
(-0.000376871 5.44788 0.000992284)
(0.000461266 3.22479 -0.000732714)
(0.000901115 3.97362 -0.00146741)
(0.00125387 4.42276 -0.00160182)
(0.00130279 4.82589 -0.00143165)
(-1.0343e-06 5.24015 -0.000699155)
(0.00258782 5.45013 3.88422e-05)
(0.004471 5.46756 0.00166073)
(0.00168963 3.21546 -0.00114892)
(0.00156067 3.9612 -0.00217892)
(0.00192458 4.41101 -0.00212479)
(0.00175962 4.8149 -0.00197101)
(-0.000481812 5.22947 -0.000971005)
(0.00144188 5.44271 0.000280415)
(0.00330846 5.45986 0.000966032)
(0.00152146 3.24485 -1.55157e-05)
(0.00252106 3.98524 -0.000402278)
(0.00384878 4.42882 -0.000666334)
(0.00516744 4.82523 -0.000746892)
(0.00513587 5.2384 0.000107107)
(0.00796586 5.46742 0.00158337)
(0.00897745 5.48705 0.00380297)
(0.00609002 3.22655 0.00579022)
(0.00730008 3.96604 0.00411526)
(0.00701213 4.41122 0.00309221)
(0.00763576 4.80905 0.00267393)
(0.00495162 5.22371 0.0031577)
(0.00681384 5.45643 0.00474106)
(0.0123289 5.47719 0.00699415)
(0.00128215 3.25814 -0.014439)
(0.00203516 3.9971 -0.0125004)
(0.00456926 4.43734 -0.0104906)
(0.00768647 4.82834 -0.0087031)
(0.00822371 5.23901 -0.00614555)
(0.0112061 5.48411 -0.00372264)
(0.0125037 5.51049 -0.000266812)
(0.0143505 3.24183 0.00453128)
(0.0185386 3.98103 0.00352208)
(0.0175519 4.42205 0.00226485)
(0.0175603 4.81383 0.00154783)
(0.0140506 5.22581 0.00195887)
(0.0155021 5.47538 0.00320133)
(0.0128779 5.50172 0.00610591)
(0.00582437 3.26309 -0.0122699)
(0.00571628 4.00387 -0.0107288)
(0.0100165 4.44386 -0.0106947)
(0.0144009 4.83206 -0.0108549)
(0.0173365 5.24019 -0.00961894)
(0.0205123 5.50234 -0.00909051)
(0.0224361 5.53117 -0.00859849)
(0.0298737 3.24715 0.0077044)
(0.0346469 3.9902 0.00377034)
(0.0314979 4.42933 0.00135409)
(0.0304851 4.81622 5.45434e-05)
(0.0245804 5.22438 6.52224e-05)
(0.0247167 5.48976 0.00142946)
(0.0226406 5.52196 0.00188126)
(0.0229334 3.24181 0.0762479)
(0.0188166 4.00092 0.0478995)
(0.0213149 4.45012 0.0353524)
(0.0256137 4.84408 0.0232276)
(0.0337831 5.25716 0.0109832)
(0.0433102 5.54121 -0.000222312)
(0.0468111 5.57228 -0.00661452)
(0.0346102 3.26592 -0.00100598)
(0.034241 4.01067 -0.00194041)
(0.0356696 4.44805 -0.00410098)
(0.0350756 4.83106 -0.00573937)
(0.0340099 5.23455 -0.00610245)
(0.0378864 5.51648 -0.00348096)
(0.040504 5.54728 0.00164102)
(0.0522873 3.33053 0.277094)
(0.0483745 4.08191 0.204455)
(0.0432229 4.54556 0.159806)
(0.0505661 4.95145 0.121147)
(0.0669906 5.36807 0.0830536)
(0.090575 5.65327 0.0479281)
(0.123482 5.6859 0.0254584)
(-0.313036 3.939 0.143963)
(-0.343548 4.46653 0.160023)
(-0.270375 4.86227 0.114357)
(-0.171723 5.21818 0.0754711)
(-0.0542847 5.56404 0.0502079)
(0.0579211 5.77322 0.0281952)
(0.170165 5.76297 0.00145407)
(-0.0258154 3.35922 0.0614979)
(-0.0606132 4.07422 0.0604373)
(-0.0394819 4.50803 0.049021)
(-0.021676 4.89022 0.0372391)
(0.00161188 5.28915 0.0264971)
(0.0340305 5.57748 0.0164844)
(0.0609787 5.61313 0.00914931)
(0.149301 4.64745 -0.080692)
(0.200169 4.87463 -0.120512)
(0.141393 4.90896 -0.0846922)
(0.0879044 4.93885 -0.0550232)
(0.0443076 4.97175 -0.0296942)
(0.0111676 4.99208 -0.00852823)
(-0.00663179 5.00116 0.0034186)
(-0.0123649 4.61987 -0.174834)
(-0.0222866 4.84927 -0.234021)
(-0.0162661 4.89868 -0.16229)
(-0.0115923 4.93307 -0.102434)
(-0.00770454 4.96397 -0.0560492)
(-0.00401363 4.98595 -0.0219144)
(-0.000483185 4.99744 -0.00333397)
(-0.160509 4.60967 -0.0822833)
(-0.218581 4.84251 -0.11294)
(-0.151566 4.89334 -0.0788651)
(-0.0962149 4.92994 -0.0501522)
(-0.0534553 4.9624 -0.0280612)
(-0.0222113 4.98512 -0.011929)
(-0.00489872 4.99682 -0.0031322)
(-0.155639 4.61468 0.0836046)
(-0.212288 4.84728 0.112503)
(-0.147714 4.89683 0.0784548)
(-0.0939374 4.93208 0.0497114)
(-0.0522155 4.96345 0.0274087)
(-0.0215982 4.98553 0.0110628)
(-0.00475776 4.997 0.0018522)
(-0.0162009 4.62185 0.172814)
(-0.0255837 4.85068 0.231567)
(-0.0181908 4.89952 0.161196)
(-0.0128971 4.93338 0.101942)
(-0.00845926 4.96394 0.0559086)
(-0.00449347 4.98578 0.0217856)
(-0.00167616 4.99721 0.0026578)
(0.149907 4.64876 0.0793981)
(0.201498 4.87594 0.118922)
(0.141748 4.90944 0.0835853)
(0.0883146 4.93969 0.0542661)
(0.0448601 4.97244 0.0295538)
(0.0122253 4.99258 0.00879778)
(-0.0039724 5.00216 -0.00211095)
(-0.183323 4.08977 0.647256)
(-0.193414 4.70546 0.390731)
(-0.132916 4.90826 0.162811)
(-0.0827561 4.94165 0.0604081)
(-0.0352766 4.98479 -0.0254653)
(0.0139566 5.02592 -0.0631619)
(0.0373557 5.03824 -0.0818919)
(-0.0798068 4.1479 0.386452)
(-0.00943095 4.81196 0.274456)
(0.0725112 5.00346 0.0906622)
(0.0893488 5.01995 0.0161845)
(0.0975992 5.04718 -0.0395468)
(0.0828582 5.07168 -0.0681695)
(0.0233979 5.06204 -0.0482146)
(-0.0591114 3.97689 0.304279)
(-0.0664739 4.72315 0.205464)
(-0.039828 4.98342 0.0375539)
(-0.0198936 5.03576 -0.024247)
(0.0145976 5.07711 -0.0608724)
(0.039588 5.11397 -0.042794)
(0.0524237 5.12193 -0.0226038)
(-0.0227408 3.81434 0.124372)
(-0.00646028 4.69695 0.123308)
(0.027884 5.00922 0.00758321)
(0.0328775 5.07173 -0.0307536)
(0.0294613 5.10699 -0.0270453)
(0.0211522 5.13623 -0.0121943)
(0.0264622 5.13487 -0.00876023)
(-0.0124846 3.61041 0.0527285)
(-0.00626093 4.58683 0.0533062)
(0.010138 5.00554 -0.00163719)
(0.0114814 5.11899 -0.0250198)
(0.00817573 5.15709 -0.0106957)
(0.00664355 5.18468 -0.00182735)
(0.0128426 5.18151 -0.00524842)
(-0.00576532 3.46664 0.0252778)
(-0.00485595 4.46262 0.0291603)
(0.00210724 4.96629 -0.00095001)
(0.00304983 5.14527 -0.0169139)
(0.000739661 5.19191 -0.00390209)
(0.00301898 5.21925 0.000472)
(0.00676527 5.21632 -0.00478595)
(-0.00220432 3.37796 0.0126689)
(-0.00280682 4.34858 0.0153638)
(-0.000850421 4.89969 0.000483708)
(-0.000659425 5.15666 -0.0105938)
(-0.00261884 5.22039 0.000183991)
(0.00153779 5.24826 0.00182754)
(0.00413859 5.24602 -0.00237816)
(-0.00104221 3.32447 0.00733943)
(-0.00135354 4.2542 0.00890084)
(-0.00182311 4.81871 0.00153787)
(-0.00272687 5.15344 -0.00599982)
(-0.00362826 5.24529 0.00241984)
(0.000892779 5.2744 0.00240794)
(0.00244638 5.27227 -0.000355037)
(-0.000443558 3.29155 0.00358381)
(-0.000560458 4.18177 0.00451017)
(-0.00166308 4.73631 0.00117003)
(-0.00366109 5.13556 -0.00334919)
(-0.00444165 5.26718 0.00284333)
(0.000187561 5.30002 0.00168363)
(0.00204954 5.29817 -0.000512948)
(-0.000292908 3.2718 0.00100506)
(-0.000180832 4.12769 0.00170866)
(-0.00131706 4.66306 0.00044194)
(-0.00393037 5.1032 -0.0019655)
(-0.00502901 5.28536 0.00199888)
(0.000221571 5.3251 0.000669611)
(0.000333941 5.32295 -0.00157092)
(-0.000744779 3.25606 0.00357852)
(-0.000396179 4.08515 0.00347036)
(-0.00132813 4.60172 0.00242713)
(-0.00350054 5.05872 0.000301774)
(-0.00520376 5.29721 0.0028045)
(-0.000863071 5.34909 0.000923004)
(0.00120663 5.34807 -0.000627626)
(0.00034794 3.24335 -0.000190069)
(0.000212182 4.04981 0.000385374)
(-0.000297485 4.55016 0.000336971)
(-0.00259499 5.00643 -0.000531634)
(-0.00471437 5.30087 0.00139986)
(-0.000208515 5.37126 -0.000521932)
(0.00118609 5.37111 -0.00129573)
(-0.000858418 3.23725 0.00441874)
(-0.000855111 4.02484 0.00395451)
(-0.000936989 4.50997 0.00331091)
(-0.00276882 4.95569 0.00219428)
(-0.00477013 5.29839 0.00281118)
(-0.00133822 5.39356 9.27751e-05)
(0.00196869 5.39506 -0.00104238)
(-0.000213358 3.22742 0.00330862)
(-0.000410103 4.00196 0.00397975)
(-0.000560149 4.47428 0.00410347)
(-0.00157415 4.9063 0.00377914)
(-0.00401094 5.28639 0.0043231)
(-0.00142258 5.41278 0.00209532)