# Selection : patch(Inlet)
# Faces  :    118
# Area   :    3.020701e-04
# Time        	areaAverage(p)
11500         	1.107276e+02
12000         	1.107278e+02
12500         	1.107277e+02
13000         	1.107277e+02
13500         	1.107277e+02
