/*--------------------------------*- C++ -*----------------------------------*\
  =========                 |
  \\      /  F ield         | OpenFOAM: The Open Source CFD Toolbox
   \\    /   O peration     | Website:  https://openfoam.org
    \\  /    A nd           | Version:  12
     \\/     M anipulation  |
\*---------------------------------------------------------------------------*/
FoamFile
{
    format      ascii;
    class       volScalarField;
    location    "13000";
    object      k;
}
// * * * * * * * * * * * * * * * * * * * * * * * * * * * * * * * * * * * * * //

dimensions      [0 2 -2 0 0 0 0];

internalField   nonuniform List<scalar> 
24749
(
0.201465
0.0782431
0.071126
0.0708031
0.070786
0.0707777
0.0707719
0.265435
0.0886464
0.0490708
0.0429167
0.0417772
0.0414907
0.0414191
0.238285
0.08128
0.0343824
0.0259506
0.0248432
0.0246885
0.0246339
0.217119
0.104158
0.0313828
0.0187736
0.0172841
0.0171349
0.0170815
0.202151
0.132706
0.0366589
0.0155392
0.0131934
0.0130077
0.0129616
0.192629
0.15692
0.0498102
0.0148227
0.0107196
0.0104323
0.0103868
0.187401
0.172877
0.0659093
0.0164004
0.00919316
0.00868535
0.00863663
0.184416
0.181284
0.0835419
0.0204556
0.00833407
0.00743339
0.00737551
0.182487
0.185301
0.101632
0.0279721
0.00811304
0.00650459
0.00642663
0.181345
0.187244
0.117285
0.0385866
0.00868617
0.00580828
0.00568764
0.180163
0.18841
0.129182
0.0512676
0.0102995
0.00530469
0.00509884
0.179468
0.188843
0.137543
0.0644964
0.0131031
0.00498071
0.00461918
0.178959
0.188768
0.143396
0.0771773
0.0172757
0.00485761
0.00422411
0.178075
0.188477
0.147815
0.0889484
0.0233597
0.00500713
0.00389726
0.177815
0.187968
0.15107
0.099173
0.0311092
0.00545895
0.00362539
0.179079
0.187224
0.152976
0.107083
0.0394299
0.00622045
0.0034023
0.180718
0.187136
0.15469
0.113095
0.0478251
0.00737957
0.00322689
0.204674
0.179055
0.149487
0.111859
0.0521823
0.00886024
0.00315114
0.222912
0.181789
0.145975
0.105405
0.0487598
0.00880443
0.00340526
0.21323
0.178828
0.149278
0.112693
0.053536
0.00912232
0.00320606
0.255055
0.165423
0.134632
0.0957622
0.0456767
0.00975953
0.00376799
0.264573
0.156185
0.127324
0.0933182
0.0481556
0.0134855
0.00425811
0.223147
0.164113
0.131023
0.0989298
0.0559454
0.0181373
0.00534932
0.175352
0.167617
0.136446
0.106452
0.0664959
0.0267194
0.008287
0.192968
0.169036
0.139834
0.110633
0.067186
0.0230552
0.00605601
0.129767
0.178549
0.14379
0.115872
0.0791014
0.038458
0.0135552
0.15371
0.172083
0.142853
0.114486
0.0745318
0.0319179
0.0099297
0.0948664
0.189278
0.15023
0.123785
0.0908666
0.0503335
0.0203054
0.116647
0.173832
0.146156
0.119514
0.0838354
0.042737
0.0153014
0.0786622
0.19718
0.153735
0.127109
0.096428
0.05769
0.0253683
0.0929755
0.173638
0.147523
0.123666
0.0918861
0.0523823
0.0208374
0.0762084
0.197784
0.156322
0.127881
0.097587
0.0588685
0.0260637
0.0861522
0.173821
0.149618
0.125017
0.0940797
0.0556959
0.0234355
0.0830855
0.192298
0.153982
0.126819
0.095609
0.0561082
0.0240596
0.0869407
0.172958
0.150284
0.125852
0.0948118
0.0556974
0.023351
0.101635
0.187043
0.149228
0.122359
0.0892073
0.0488481
0.0184835
0.0973401
0.174709
0.14875
0.123849
0.0910397
0.051181
0.020101
0.131322
0.178648
0.144029
0.116566
0.0800659
0.0389956
0.0133924
0.117624
0.175887
0.147038
0.12023
0.0849344
0.0435329
0.0152274
0.177656
0.168874
0.136128
0.106998
0.0665602
0.0259349
0.00808161
0.150699
0.173108
0.1441
0.115981
0.0761595
0.0328823
0.0102398
0.233714
0.15959
0.13223
0.0993111
0.0544202
0.0156025
0.0047028
0.219767
0.177303
0.146222
0.111809
0.0595703
0.0132933
0.00380203
0.185791
0.176384
0.144228
0.111948
0.0656633
0.0204396
0.00535388
0.234175
0.169958
0.140423
0.106775
0.0566337
0.0150872
0.00411055
0.201383
0.0782704
0.0711303
0.0708041
0.0707865
0.070778
0.0707711
0.265134
0.0887672
0.0490094
0.042812
0.0416804
0.0413841
0.0412508
0.253109
0.079832
0.0390162
0.0322386
0.0312925
0.0311063
0.0310349
0.260615
0.0886539
0.0445939
0.0370641
0.0359219
0.0356788
0.0355579
0.238631
0.0813489
0.0341673
0.025797
0.0247252
0.0245633
0.0244884
0.246677
0.085236
0.0375991
0.0288232
0.0276519
0.0274678
0.0273979
0.226477
0.0911225
0.0318586
0.0215857
0.020321
0.0201657
0.0200946
0.232129
0.0888614
0.0338867
0.023619
0.0223101
0.0221484
0.0220689
0.217129
0.105122
0.0316563
0.0187501
0.0172076
0.0170451
0.016977
0.221158
0.0995874
0.0324987
0.0201491
0.0186381
0.0184752
0.0183994
0.208966
0.119667
0.0335213
0.0168544
0.0149112
0.0147302
0.0146693
0.212164
0.113292
0.0332949
0.0178284
0.0159834
0.0158062
0.0157382
0.20193
0.133894
0.0375389
0.0156844
0.013165
0.0129489
0.0128926
0.2045
0.12737
0.0362951
0.0163401
0.0139898
0.0137856
0.0137253
0.19626
0.146873
0.0439454
0.0151682
0.0118112
0.0115379
0.0114833
0.198127
0.140718
0.0415557
0.0155378
0.0124562
0.0122051
0.0121479
0.191995
0.157989
0.0513139
0.0152764
0.0107532
0.010395
0.0103402
0.19328
0.152564
0.0482778
0.015345
0.0112601
0.0109381
0.0108824
0.188912
0.166956
0.0592335
0.0159623
0.00993026
0.00945274
0.00939578
0.189735
0.162432
0.0558123
0.0157317
0.0103243
0.00990224
0.00984583
0.186687
0.173685
0.0676678
0.0172377
0.00930332
0.00866473
0.00860404
0.187207
0.170174
0.0638853
0.0167068
0.00960222
0.00904193
0.00898269
0.185034
0.178487
0.0764715
0.0191422
0.0088437
0.00799771
0.00792993
0.185382
0.175854
0.0723995
0.0182879
0.00906047
0.00831783
0.00825332
0.183726
0.181801
0.085637
0.0218239
0.00855411
0.00742835
0.00735127
0.184001
0.179834
0.0812779
0.0205745
0.00868459
0.00770213
0.00762974
0.18265
0.184063
0.0949832
0.0254548
0.00843835
0.00693926
0.00684859
0.182852
0.182558
0.0905125
0.0237462
0.00848232
0.00717482
0.00709113
0.181822
0.185664
0.103846
0.0300828
0.0085153
0.00651753
0.00640827
0.181963
0.184466
0.099568
0.0278337
0.00845745
0.00672065
0.00662109
0.181137
0.186788
0.112005
0.0353268
0.00880155
0.0061542
0.00601952
0.181247
0.18582
0.108066
0.0327647
0.0086391
0.00632934
0.00620806
0.180577
0.187588
0.119232
0.0411511
0.00932423
0.00584285
0.00567418
0.180647
0.186774
0.115742
0.038302
0.0090405
0.00599245
0.00584184
0.180068
0.188169
0.12544
0.0474573
0.0101239
0.0055818
0.00536576
0.18014
0.187477
0.122442
0.0443888
0.00970479
0.0057071
0.0055157
0.179619
0.188572
0.130647
0.0540594
0.0112122
0.00536727
0.00508874
0.179668
0.187993
0.128123
0.0508493
0.0106526
0.00547027
0.00522364
0.1792
0.188825
0.135015
0.0606934
0.0126067
0.0052002
0.00483903
0.179267
0.188332
0.132879
0.0574844
0.0119047
0.00528064
0.00496084
0.178794
0.188943
0.138677
0.0672544
0.0143378
0.00508365
0.00461288
0.178864
0.188522
0.136859
0.0640873
0.0134758
0.00513879
0.00472323
0.178482
0.188927
0.141759
0.0736514
0.016423
0.0050222
0.00440783
0.178521
0.188582
0.14019
0.0705449
0.0153772
0.00504739
0.0045078
0.178276
0.188767
0.14438
0.0798093
0.0188846
0.00501442
0.00422105
0.178283
0.188498
0.143009
0.0767821
0.0176278
0.00500638
0.00431181
0.178098
0.188539
0.146609
0.085739
0.0218448
0.00507631
0.00405117
0.17811
0.188328
0.145405
0.0828264
0.0203351
0.00502856
0.00413358
0.177901
0.188313
0.148541
0.0913242
0.0254261
0.00522776
0.00389735
0.177914
0.188145
0.14749
0.0885748
0.023609
0.00513429
0.00397197
0.177664
0.18812
0.150235
0.0965151
0.0293548
0.00549157
0.0037595
0.177697
0.187968
0.149308
0.0939765
0.0273928
0.00534765
0.00382667
0.177473
0.187858
0.151655
0.101215
0.0335191
0.00584584
0.0036342
0.17744
0.187757
0.150843
0.0989517
0.0314934
0.00567639
0.00369676
0.177857
0.187438
0.15271
0.105313
0.0376903
0.00623051
0.00351892
0.177441
0.187446
0.152113
0.103352
0.0356408
0.00603686
0.00357526
0.179013
0.186819
0.153263
0.108654
0.0418461
0.00671128
0.00341653
0.178082
0.187043
0.153032
0.107183
0.0398591
0.00647284
0.00346655
0.180069
0.186319
0.15353
0.111397
0.0460711
0.00739327
0.00333494
0.17923
0.186545
0.153549
0.110387
0.0441979
0.00710649
0.00337895
0.180485
0.185784
0.153581
0.113537
0.0502633
0.00833258
0.00328403
0.179873
0.186074
0.153808
0.113085
0.0486888
0.00803171
0.00332208
0.179999
0.187062
0.154683
0.115421
0.0537719
0.00910941
0.00322229
0.180798
0.185676
0.153782
0.114917
0.0525559
0.00884027
0.0032544
0.186199
0.187953
0.155147
0.11485
0.0554247
0.0104154
0.00328774
0.209085
0.168951
0.140768
0.102463
0.0519023
0.0126472
0.003843
0.184022
0.184538
0.152688
0.113709
0.0548207
0.0101055
0.00329126
0.187538
0.0818378
0.0730724
0.0723066
0.0722083
0.0721724
0.0721583
0.184438
0.0824313
0.0735501
0.0726615
0.0725381
0.072509
0.0725004
0.181453
0.0826727
0.0740882
0.073229
0.073105
0.073075
0.0730663
0.183279
0.082522
0.0737346
0.0728635
0.0727404
0.0727107
0.0727022
0.185181
0.0823672
0.0734001
0.0725106
0.0723889
0.0723608
0.0723523
0.187071
0.0818722
0.0731828
0.0724272
0.0723322
0.0722972
0.0722845
0.26089
0.0889014
0.0448343
0.0372486
0.0360778
0.0358418
0.0357841
0.252838
0.079879
0.0391944
0.0323789
0.0314123
0.031233
0.0311955
0.246391
0.0853281
0.0379051
0.0290129
0.0277971
0.0276244
0.0275823
0.226268
0.0905024
0.0318689
0.0216855
0.0204164
0.0202716
0.020216
0.208961
0.118541
0.0329715
0.0168026
0.0149659
0.0148039
0.0147556
0.196749
0.145712
0.0426193
0.0148893
0.01181
0.0115853
0.0115403
0.189634
0.165975
0.0576221
0.01533
0.00986121
0.00948146
0.00943469
0.185698
0.177859
0.0745662
0.0180811
0.00868697
0.00801078
0.00795831
0.183334
0.183638
0.0927659
0.0236779
0.00813514
0.00693571
0.00686978
0.181855
0.186434
0.109896
0.032989
0.00829167
0.00613123
0.00603525
0.180768
0.18791
0.123711
0.0447221
0.00934364
0.0055335
0.00537745
0.179752
0.188714
0.133752
0.0579165
0.0115513
0.00512032
0.00484723
0.17925
0.188831
0.140698
0.070926
0.0149871
0.00488913
0.00441211
0.178521
0.18864
0.145756
0.0832092
0.020038
0.00489597
0.00405317
0.177826
0.188276
0.149593
0.0942924
0.0271176
0.00519951
0.00375525
0.178269
0.187591
0.152187
0.10346
0.0352492
0.00579655
0.00350795
0.179753
0.187211
0.153859
0.110337
0.0436632
0.00674879
0.00330875
0.188489
0.183938
0.153257
0.113852
0.0512334
0.00816992
0.00316614
0.274833
0.0692583
0.0580064
0.0575328
0.0575026
0.0574405
0.0574716
0.238342
0.069704
0.0583698
0.0577415
0.0577902
0.0578721
0.0579957
0.18808
0.0818738
0.0726822
0.0718083
0.0716919
0.0716637
0.0716539
0.23437
0.0700164
0.0595521
0.058926
0.0589521
0.0590321
0.0591564
0.181761
0.0826151
0.074042
0.0731896
0.0730662
0.0730359
0.0730264
0.237938
0.0695978
0.0586169
0.0579656
0.0579942
0.0580779
0.058174
0.231868
0.0701708
0.0599174
0.0593094
0.0593379
0.0594179
0.0594927
0.18255
0.0826308
0.0739084
0.0730217
0.0728963
0.0728666
0.0728575
0.183828
0.0824421
0.0736436
0.0727776
0.072655
0.0726252
0.0726158
0.187687
0.0818769
0.0727711
0.0719079
0.0717928
0.0717646
0.0717547
0.274633
0.0692783
0.0580816
0.0576134
0.0575829
0.057527
0.0576037
0.232031
0.0885337
0.0339685
0.0237451
0.0224275
0.0222767
0.0222172
0.212259
0.112174
0.0327653
0.0177903
0.0160478
0.0158914
0.0158388
0.198675
0.13952
0.0402509
0.015264
0.0124652
0.0122587
0.0122118
0.190567
0.161493
0.0541294
0.0151454
0.0102691
0.00993522
0.00988899
0.186206
0.175228
0.0705111
0.0172975
0.00892384
0.00833453
0.00828436
0.183674
0.182197
0.0882844
0.0220892
0.00821357
0.00717524
0.0071139
0.182022
0.185577
0.105864
0.0304756
0.00816969
0.0063106
0.00622504
0.180976
0.187296
0.120595
0.0416691
0.00898047
0.00566511
0.00552832
0.179859
0.188312
0.131529
0.0546504
0.0108978
0.00520779
0.00496984
0.179303
0.188626
0.139119
0.0677526
0.0140043
0.00492836
0.00451321
0.178684
0.188518
0.144565
0.080293
0.0186832
0.00488007
0.00413736
0.177889
0.188199
0.148655
0.091673
0.0252299
0.00509492
0.00382484
0.177953
0.187584
0.151495
0.101306
0.0331772
0.0056155
0.00356544
0.179392
0.187059
0.153349
0.108817
0.0416022
0.00647402
0.00335435
0.182981
0.1862
0.154331
0.113772
0.0498562
0.00782194
0.00319476
0.231837
0.0701757
0.0598125
0.0591829
0.0592132
0.0592947
0.0594105
0.194031
0.151481
0.0466904
0.0149242
0.0112376
0.0109804
0.0109346
0.188084
0.16937
0.0621084
0.01593
0.00950882
0.00906637
0.00901887
0.184779
0.179361
0.0792374
0.0193053
0.00849165
0.00771095
0.00765624
0.182738
0.184179
0.0973074
0.0258321
0.00809501
0.00671188
0.00664082
0.181484
0.18655
0.113683
0.0357726
0.00844888
0.00596292
0.00585632
0.180368
0.187898
0.12654
0.0480537
0.00980057
0.0054151
0.00523463
0.179549
0.188544
0.135664
0.0612413
0.0122835
0.00504394
0.00473033
0.179055
0.188613
0.142038
0.0741249
0.0161219
0.00487055
0.00431627
0.178228
0.188372
0.146765
0.0861677
0.0217264
0.00495541
0.00397422
0.177766
0.187928
0.15024
0.0967815
0.0290914
0.00531427
0.00368909
0.178553
0.18726
0.152508
0.105317
0.0373578
0.00599911
0.00345406
0.180055
0.187049
0.154171
0.111782
0.0458165
0.00706297
0.00326672
0.194911
0.183367
0.152338
0.114378
0.0527989
0.00861821
0.00314655
0.204715
0.12616
0.0354244
0.0162015
0.0140281
0.0138524
0.0138039
0.221164
0.0986275
0.0322231
0.0201929
0.0187286
0.0185813
0.0185227
0.238158
0.0697354
0.0585133
0.057898
0.0579472
0.0580265
0.0580953
0.235847
0.0698847
0.0591696
0.058533
0.058561
0.0586409
0.0587313
0.232796
0.0700851
0.0595644
0.0589264
0.0589573
0.0590378
0.0591161
0.233752
0.0699886
0.0593882
0.0587611
0.0587922
0.0588759
0.0590131
0.238531
0.0695675
0.058579
0.0579342
0.0579625
0.0580465
0.0581704
0.241413
0.097287
0.0421797
0.0298796
0.0277468
0.0274105
0.0273438
0.261224
0.0769748
0.0509542
0.0475898
0.0471994
0.0471914
0.0472166
0.186784
0.156944
0.0591547
0.0195597
0.0129728
0.0122932
0.0122104
0.209348
0.120856
0.0426785
0.0224133
0.0189772
0.0185208
0.0184448
0.181047
0.17383
0.075159
0.02128
0.0109535
0.00999112
0.00989953
0.179045
0.183292
0.0934044
0.0261384
0.00988666
0.0084096
0.00829702
0.178384
0.187751
0.110898
0.0349757
0.00972299
0.00728191
0.00712786
0.177978
0.189362
0.125189
0.0465986
0.0105898
0.00647519
0.00623978
0.178058
0.189572
0.135107
0.0593981
0.012528
0.00591324
0.00554489
0.177221
0.18943
0.142054
0.0723078
0.0158789
0.00560582
0.00499132
0.177301
0.188591
0.146685
0.0843179
0.0205937
0.00553511
0.00454062
0.176856
0.187872
0.149934
0.0949015
0.0272294
0.00575714
0.00417423
0.175773
0.187187
0.15244
0.104059
0.0356723
0.00648427
0.00388507
0.176024
0.186335
0.15395
0.111031
0.0443845
0.00761175
0.00365782
0.177875
0.185442
0.154542
0.115586
0.0524569
0.00896576
0.0034778
0.178007
0.18621
0.156163
0.12019
0.0611341
0.0112043
0.00338961
0.257907
0.0778311
0.0530727
0.0498174
0.0494389
0.0494393
0.0495122
0.191844
0.145912
0.0524607
0.0197481
0.0144608
0.0138708
0.0137894
0.189035
0.151304
0.0550061
0.0193454
0.0136519
0.0130359
0.0129509
0.298976
0.0943072
0.0581919
0.0512425
0.0497559
0.0493469
0.0492268
0.207483
0.174188
0.145491
0.110245
0.0581531
0.0131592
0.00367547
0.258086
0.0780738
0.0533907
0.0501426
0.0497557
0.0497517
0.0497955
0.258048
0.0686484
0.0453506
0.0426709
0.042433
0.0424889
0.0426243
0.183317
0.166368
0.0667709
0.020063
0.0118269
0.0110276
0.0109415
0.181841
0.17013
0.0706872
0.0205136
0.0113599
0.0104859
0.0103957
0.159994
0.170788
0.139601
0.109749
0.0683922
0.0269556
0.00798636
0.134648
0.172752
0.141074
0.11336
0.0761083
0.0357578
0.0117665
0.144515
0.173076
0.14459
0.115202
0.0738464
0.0307481
0.00927836
0.115925
0.174668
0.141698
0.117182
0.0833998
0.0436816
0.0153129
0.123882
0.170468
0.142871
0.116963
0.0807496
0.0397453
0.0134195
0.110436
0.176221
0.142354
0.11802
0.0855233
0.0467255
0.0170786
0.112628
0.170039
0.143183
0.118685
0.085346
0.0452215
0.0164218
0.111554
0.175663
0.143956
0.118867
0.0862661
0.0467544
0.0172094
0.11225
0.170948
0.1438
0.118645
0.0852179
0.0459761
0.0170262
0.119982
0.174503
0.143502
0.117592
0.0830614
0.0433067
0.0151399
0.115365
0.169781
0.145843
0.120594
0.086229
0.0454634
0.0163915
0.135008
0.174987
0.14255
0.114511
0.0776078
0.0367364
0.0119299
0.126005
0.173541
0.145521
0.118145
0.0816624
0.0405034
0.0136467
0.160112
0.172115
0.140386
0.110928
0.0695998
0.0275609
0.00821715
0.142548
0.174058
0.14508
0.116913
0.0775327
0.0339209
0.0103899
0.262898
0.0784525
0.0523957
0.048807
0.0483503
0.0483316
0.0484003
0.261687
0.0677572
0.0436766
0.0408327
0.040557
0.0405981
0.0406732
0.263114
0.0900739
0.0464518
0.0375187
0.0359188
0.0356238
0.0356134
0.241188
0.0974239
0.0420323
0.0296109
0.0274107
0.0270805
0.0270118
0.25432
0.0908004
0.0421587
0.0326161
0.0309421
0.0306462
0.0305958
0.221054
0.108888
0.0412744
0.0251102
0.0222415
0.0218325
0.0217512
0.230631
0.100872
0.0400027
0.0268505
0.0245378
0.0241765
0.0240922
0.208286
0.122149
0.0429878
0.0222888
0.0187259
0.018252
0.0181668
0.214701
0.113941
0.0400674
0.0231328
0.0202798
0.0198733
0.0197885
0.198564
0.135036
0.0472498
0.0206441
0.0162039
0.015655
0.0155667
0.203345
0.127668
0.0432927
0.020943
0.0173202
0.0168483
0.0167606
0.190746
0.147528
0.0535241
0.0200165
0.0143455
0.0136878
0.0135968
0.194321
0.141053
0.0493446
0.0199666
0.015186
0.0146067
0.0145167
0.184864
0.158786
0.060956
0.0202208
0.012951
0.012147
0.0120495
0.187319
0.153231
0.0567256
0.0199016
0.0135965
0.012875
0.0127793
0.181132
0.168116
0.0691703
0.0211493
0.0119031
0.0109117
0.0108041
0.182577
0.163558
0.0647427
0.0205158
0.0123911
0.0114988
0.0113945
0.178966
0.175402
0.0779122
0.0227399
0.01112
0.00990232
0.00978322
0.179737
0.171844
0.0732686
0.0217689
0.0114774
0.0103839
0.0102693
0.177778
0.180788
0.0871871
0.025117
0.0105675
0.00906502
0.00893283
0.178144
0.178134
0.0823186
0.0237465
0.0108091
0.00946577
0.00933953
0.17728
0.184553
0.0966214
0.0284659
0.0102412
0.00836314
0.00821356
0.177324
0.182656
0.0918291
0.0266244
0.0103686
0.00870018
0.00855867
0.17712
0.187098
0.105626
0.0328793
0.0101387
0.00777028
0.00759757
0.177061
0.185765
0.101071
0.0304952
0.0101436
0.0080547
0.00789369
0.17698
0.188694
0.113996
0.0380142
0.0102953
0.00726956
0.00706537
0.176932
0.187797
0.109835
0.0352963
0.0101711
0.00751028
0.00732202
0.177015
0.189527
0.121408
0.0437968
0.0107207
0.00684792
0.00660049
0.176873
0.188984
0.117765
0.0407751
0.0104525
0.0070498
0.00682507
0.177098
0.189922
0.127678
0.050005
0.0114071
0.00649435
0.00619161
0.176959
0.189566
0.124598
0.0467661
0.0109905
0.0066607
0.00638915
0.17704
0.19009
0.1329
0.0565344
0.0124138
0.00620585
0.0058301
0.17697
0.189846
0.130352
0.0532195
0.0118582
0.00634215
0.00600543
0.177
0.190015
0.137226
0.0630881
0.0137279
0.00597961
0.00550858
0.176876
0.18989
0.135139
0.0598182
0.0130364
0.00608644
0.00566474
0.177013
0.189743
0.140726
0.0695089
0.0153413
0.00581125
0.00522103
0.176861
0.189725
0.139051
0.0663545
0.0145247
0.00589292
0.00536118
0.176944
0.189385
0.143597
0.0757127
0.0172746
0.00570334
0.004963
0.176844
0.18942
0.14222
0.0727121
0.0163322
0.00575924
0.00508952
0.176594
0.188999
0.146021
0.0817661
0.0196317
0.00566879
0.00473093
0.176643
0.189023
0.144864
0.0788842
0.0185274
0.00569605
0.00484543
0.17619
0.188629
0.148102
0.0876199
0.0225234
0.00571925
0.00452248
0.176289
0.188609
0.147061
0.0847857
0.0211147
0.00569571
0.00462477
0.176083
0.188113
0.14981
0.0931162
0.0260043
0.00585704
0.00433451
0.176106
0.188172
0.148897
0.0903396
0.0241699
0.00576286
0.00442502
0.176153
0.187483
0.151036
0.0979982
0.0299116
0.00607599
0.00416519
0.176106
0.18756
0.150225
0.0954005
0.0277685
0.00590141
0.00424425
0.176142
0.187024
0.152013
0.102316
0.0340133
0.00639353
0.00401291
0.176095
0.187038
0.151315
0.0999951
0.0317965
0.00616895
0.00408368
0.175955
0.186795
0.153008
0.106348
0.0382626
0.00683128
0.00387796
0.175943
0.186766
0.152411
0.104326
0.0360558
0.00656781
0.00394154
0.175643
0.186636
0.153999
0.109966
0.0426396
0.00740684
0.0037617
0.175639
0.186594
0.153456
0.108219
0.0404961
0.00711964
0.00381897
0.175505
0.18636
0.154797
0.11313
0.0470297
0.00804854
0.00365693
0.175364
0.186353
0.15438
0.111647
0.0449209
0.00776064
0.00371032
0.176228
0.185875
0.155252
0.115599
0.0511285
0.00872642
0.00356198
0.175436
0.186037
0.155148
0.114583
0.0492121
0.00840873
0.00360845
0.178919
0.18473
0.154627
0.116802
0.0546345
0.00949499
0.0034842
0.176389
0.185514
0.15557
0.116944
0.0534098
0.00920618
0.00352569
0.179439
0.183548
0.153349
0.117039
0.0577104
0.0107621
0.00349711
0.177969
0.184522
0.155018
0.118468
0.0576226
0.0106296
0.00354043
0.178737
0.181879
0.152085
0.117183
0.0608201
0.012502
0.00361029
0.177704
0.183234
0.153815
0.119074
0.0613948
0.0125683
0.00366251
0.260197
0.0783049
0.0531757
0.0498561
0.049448
0.0494367
0.0495108
0.259855
0.0686748
0.0454337
0.0427524
0.0425006
0.0425504
0.0426772
0.262483
0.0783591
0.0523117
0.0487279
0.048275
0.0482579
0.0483118
0.261836
0.0686987
0.044869
0.0420608
0.0417797
0.0418252
0.041972
0.259217
0.0777639
0.0526697
0.0493755
0.0489891
0.0489882
0.0490714
0.258506
0.0777521
0.0527803
0.0494948
0.0491122
0.0491115
0.0491553
0.258089
0.0686384
0.0450265
0.0423151
0.0420777
0.0421307
0.0421732
0.258431
0.0684991
0.0448232
0.0420979
0.0418585
0.0419104
0.0419578
0.260997
0.0782178
0.0527302
0.0493571
0.0489439
0.0489315
0.0489772
0.262382
0.0686785
0.0446762
0.0418416
0.0415555
0.0415927
0.041583
0.298631
0.0943112
0.058298
0.0513744
0.0498937
0.0494946
0.049406
0.185874
0.168448
0.138469
0.107123
0.0627649
0.0203141
0.00553632
0.167026
0.1739
0.144785
0.1148
0.0696596
0.0241345
0.00645929
0.184439
0.174628
0.147011
0.116057
0.0677716
0.0198505
0.00488484
0.222113
0.108163
0.0414704
0.0254079
0.0225516
0.0221399
0.0220635
0.231242
0.100744
0.0404808
0.0272168
0.024895
0.0245212
0.0244343
0.215936
0.112796
0.0400197
0.0233532
0.0205725
0.0201721
0.02009
0.19922
0.133663
0.0467084
0.0206363
0.016397
0.0158808
0.0158033
0.195255
0.139388
0.048473
0.019817
0.0153407
0.0148102
0.0147269
0.260433
0.0778164
0.0461384
0.0417675
0.0411394
0.0409795
0.0409794
0.260402
0.0779312
0.0464062
0.0420347
0.0413933
0.0412314
0.0412392
0.178103
0.18804
0.114764
0.0376523
0.00983071
0.00705452
0.00688328
0.178124
0.188819
0.118557
0.0405192
0.0100193
0.00684339
0.00665523
0.204142
0.126369
0.043091
0.0210655
0.0175621
0.0171032
0.0170214
0.177894
0.188808
0.121891
0.0434343
0.0102371
0.00664949
0.00644036
0.179803
0.179331
0.0841442
0.0232805
0.0103144
0.00913128
0.0090311
0.178591
0.186031
0.102389
0.0300691
0.00967767
0.00779882
0.00766977
0.180141
0.176565
0.079485
0.0221565
0.0106106
0.00954329
0.00944592
0.178046
0.189496
0.130643
0.0529593
0.0114169
0.0061659
0.00587164
0.177657
0.189595
0.138877
0.0658576
0.014003
0.00572525
0.00525306
0.177197
0.189076
0.14463
0.0785029
0.0180807
0.00554385
0.00475469
0.177246
0.188236
0.148448
0.0897464
0.023539
0.00558848
0.00434687
0.176207
0.187502
0.151234
0.0996793
0.0313603
0.00605656
0.00402109
0.175745
0.186832
0.153368
0.107904
0.0400493
0.00700834
0.00376431
0.176695
0.185874
0.154325
0.113603
0.0485623
0.00827587
0.0035627
0.177312
0.185831
0.155253
0.117926
0.0568148
0.0100558
0.00343164
0.184781
0.161656
0.0624409
0.0195717
0.0123544
0.0116287
0.0115431
0.195691
0.178509
0.150412
0.115235
0.060043
0.01198
0.00341631
0.261186
0.0771338
0.0507747
0.0473209
0.0469147
0.0469066
0.0469659
0.255076
0.0918385
0.0428451
0.0330735
0.0313411
0.0310339
0.0309832
0.173936
0.174912
0.146659
0.115773
0.0691508
0.0227945
0.00614964
0.186272
0.171983
0.141465
0.108482
0.0619407
0.0185759
0.00521267
0.263821
0.0897176
0.0464095
0.037671
0.0361347
0.0358696
0.0358587
0.259375
0.0685944
0.0448198
0.0420696
0.0418176
0.0418639
0.0419021
0.194725
0.180238
0.151704
0.118082
0.0646301
0.0147521
0.00372155
0.169594
0.185393
0.154698
0.121111
0.066941
0.0153427
0.00383528
0.178493
0.17593
0.146054
0.112219
0.0619251
0.015786
0.00414305
0.178751
0.181354
0.151566
0.118655
0.0641126
0.0142398
0.00377708
0.17782
0.189114
0.127941
0.0496661
0.0109255
0.00631001
0.00604951
0.259275
0.0680447
0.0435446
0.0406103
0.0403346
0.0403781
0.0404526
0.17944
0.182783
0.155261
0.118377
0.061158
0.0120835
0.0034386
0.177414
0.185215
0.155369
0.118701
0.0587282
0.0105157
0.0034059
0.176835
0.185544
0.154453
0.11472
0.0506284
0.00861766
0.00351942
0.175792
0.186251
0.153379
0.109277
0.0421077
0.00723922
0.00370565
0.175836
0.187041
0.15172
0.101964
0.0336368
0.0062939
0.00395355
0.176828
0.187825
0.149242
0.0925092
0.0255483
0.00570359
0.00426086
0.177769
0.185251
0.154743
0.116938
0.0548992
0.00962616
0.00346518
0.176151
0.185793
0.1539
0.112126
0.0464025
0.00789875
0.00360737
0.175716
0.186717
0.152712
0.105953
0.0378064
0.0067056
0.00382039
0.176325
0.187413
0.150599
0.0975083
0.0294901
0.0059601
0.00409958
0.17709
0.188156
0.147532
0.0870974
0.0220994
0.00555589
0.00444157
0.177046
0.188951
0.143306
0.0754457
0.0169663
0.00556667
0.00486958
0.177678
0.189314
0.137055
0.0627619
0.0133103
0.00582234
0.00539569
0.177244
0.189202
0.140497
0.0692207
0.0149963
0.00566968
0.00511936
0.177105
0.188512
0.145579
0.0814108
0.019291
0.00552339
0.00464433
0.178298
0.186696
0.106693
0.0324531
0.00967587
0.00753157
0.00738901
0.179182
0.181215
0.088727
0.0246102
0.0100786
0.00875669
0.00864904
0.178568
0.184517
0.0979155
0.0280485
0.00976429
0.00809383
0.00797131
0.17786
0.189257
0.132927
0.0561836
0.0119398
0.00603315
0.00570362
0.175527
0.183309
0.120939
0.0473112
0.0111811
0.00603391
0.00567174
0.175444
0.182731
0.114556
0.0412586
0.010362
0.00630744
0.00601539
0.175258
0.182754
0.11777
0.0441251
0.0106695
0.00615019
0.00583687
0.178963
0.174114
0.0796206
0.0220967
0.00925917
0.008019
0.00791617
0.180889
0.169352
0.0703291
0.0192699
0.00956107
0.00866714
0.00858595
0.179631
0.171683
0.0749626
0.020668
0.00940053
0.00832993
0.00823832
0.183014
0.163008
0.0615604
0.0173651
0.0100863
0.00944134
0.00937435
0.181638
0.166188
0.0659263
0.0182859
0.00980543
0.00903696
0.0089633
0.208393
0.103465
0.0310121
0.0184195
0.0170178
0.0168685
0.016831
0.174103
0.184868
0.131363
0.0603791
0.013963
0.00569161
0.00509573
0.174049
0.184927
0.138467
0.0733446
0.0183114
0.00560081
0.00463089
0.17517
0.184262
0.126395
0.0536
0.0122884
0.00581592
0.00536699
0.175116
0.18363
0.123699
0.050457
0.0117294
0.00591744
0.00551539
0.174357
0.184311
0.129039
0.0572409
0.0132613
0.00576585
0.00522924
0.173783
0.18507
0.13537
0.0670641
0.0160401
0.00563581
0.00485208
0.17383
0.184672
0.13679
0.0701152
0.0170437
0.00557756
0.00473632
0.177082
0.182233
0.150841
0.111901
0.0524921
0.00986549
0.00353097
0.174317
0.184829
0.14334
0.0849634
0.0240723
0.00571483
0.00425042
0.172589
0.184607
0.14725
0.095754
0.0320187
0.00638987
0.00396035
0.172618
0.184121
0.149978
0.104442
0.0406831
0.00758631
0.0037488
0.173863
0.183384
0.151193
0.110485
0.0491595
0.00918188
0.00360524
0.173799
0.183305
0.151724
0.111804
0.0511525
0.00955351
0.00356946
0.190506
0.144063
0.0452539
0.0155104
0.0118093
0.0114933
0.0114443
0.167987
0.183755
0.155341
0.11938
0.0640223
0.0148027
0.00392944
0.175379
0.17511
0.145094
0.111128
0.0622235
0.0175972
0.00487057
0.241049
0.0739991
0.0367096
0.0306214
0.0297954
0.0297395
0.0297441
0.262671
0.0794982
0.0424507
0.035938
0.0349677
0.034887
0.0349227
0.152751
0.172549
0.141227
0.11033
0.0676628
0.0258803
0.00756026
0.257431
0.0789545
0.0439676
0.0379084
0.0370173
0.0369572
0.0370464
0.185995
0.154685
0.0530637
0.0160808
0.010818
0.0103692
0.0103129
0.183931
0.158963
0.0574188
0.0167338
0.0104319
0.00988395
0.00982219
0.137306
0.170194
0.139193
0.111912
0.0739979
0.0336649
0.0107254
0.142404
0.17327
0.144654
0.114567
0.0723146
0.0293334
0.00870101
0.129685
0.170119
0.139145
0.113698
0.0782766
0.0384359
0.0128395
0.130555
0.168169
0.141755
0.116129
0.0790153
0.0374444
0.012241
0.129238
0.170515
0.139465
0.113404
0.0784113
0.0395128
0.0133876
0.128688
0.169149
0.142644
0.116385
0.0801442
0.0396909
0.0134295
0.129375
0.171983
0.142881
0.115526
0.0792452
0.0388203
0.0128885
0.129209
0.169712
0.143023
0.116661
0.0804091
0.039965
0.0135565
0.138554
0.173278
0.141984
0.113115
0.0753065
0.0347282
0.0109831
0.129419
0.173351
0.147202
0.118715
0.0801316
0.0378231
0.0122524
0.152879
0.174478
0.142515
0.112278
0.0706564
0.0279576
0.00817707
0.154799
0.177092
0.147806
0.117135
0.071911
0.0256061
0.00696729
0.140385
0.175835
0.146276
0.11682
0.0766772
0.0331316
0.0100041
0.264549
0.0807977
0.0433889
0.0366059
0.0355188
0.0354066
0.0354305
0.239693
0.0749844
0.03749
0.0311713
0.0302437
0.0301524
0.030144
0.257762
0.0792524
0.0436225
0.0373593
0.0364108
0.0363319
0.0363447
0.223135
0.0797065
0.0321773
0.0245612
0.0236095
0.0235312
0.0235137
0.232187
0.0780616
0.0348624
0.0274087
0.0264232
0.0263601
0.0263644
0.216138
0.0905758
0.0298415
0.0205075
0.0194947
0.0194032
0.0193777
0.219613
0.083791
0.0305364
0.022288
0.0213261
0.0212482
0.021228
0.208726
0.104039
0.0305751
0.0179234
0.0165934
0.0164732
0.0164415
0.211786
0.0961774
0.029594
0.0190151
0.0178963
0.0177972
0.0177676
0.20142
0.11843
0.0332724
0.0162107
0.0144403
0.0142899
0.0142552
0.204781
0.110808
0.0313749
0.0169258
0.0154293
0.0153001
0.0152669
0.19433
0.1329
0.038322
0.0152406
0.0127938
0.0126012
0.012562
0.197611
0.125901
0.035664
0.0156616
0.0135619
0.0133958
0.013359
0.189105
0.145679
0.0450439
0.0150033
0.0115209
0.0112561
0.0112118
0.19135
0.139594
0.0417871
0.0151056
0.0121191
0.0118928
0.0118506
0.185781
0.156161
0.0524355
0.0152938
0.0105199
0.0101632
0.0101132
0.187344
0.151179
0.0486539
0.0150738
0.0109849
0.0106823
0.0106354
0.183297
0.164518
0.060534
0.0161968
0.00974948
0.00926123
0.00920495
0.184513
0.16059
0.0563277
0.015633
0.0101014
0.00969115
0.00963876
0.181581
0.170714
0.0693204
0.0178432
0.00918386
0.00850642
0.00844102
0.182272
0.167878
0.0648512
0.0169196
0.00944084
0.0088671
0.00880692
0.180414
0.175159
0.0783156
0.0201501
0.00878242
0.00786615
0.00778945
0.180983
0.173135
0.0736659
0.018843
0.00895596
0.00817211
0.00810231
0.179227
0.178433
0.0876591
0.0234096
0.00856839
0.00732184
0.00722907
0.179819
0.176934
0.0828782
0.021599
0.00864563
0.00758223
0.00749886
0.178385
0.180653
0.0969002
0.0276527
0.00857728
0.00685808
0.0067412
0.178669
0.179658
0.0922959
0.0254125
0.0085415
0.00707905
0.0069764
0.177901
0.182171
0.105427
0.0324346
0.00875682
0.00645805
0.00631227
0.178133
0.18146
0.101129
0.0298297
0.00860627
0.00664548
0.00651877
0.177337
0.183362
0.113185
0.0378861
0.00917922
0.00611995
0.00593356
0.17757
0.182814
0.109315
0.0349528
0.00890148
0.00627676
0.00611651
0.176648
0.18431
0.12007
0.0440446
0.00991222
0.00584112
0.00559713
0.176845
0.183868
0.116739
0.0408722
0.00950795
0.00597078
0.00576002
0.176432
0.184885
0.125896