/*--------------------------------*- C++ -*----------------------------------*\
  =========                 |
  \\      /  F ield         | OpenFOAM: The Open Source CFD Toolbox
   \\    /   O peration     | Website:  https://openfoam.org
    \\  /    A nd           | Version:  12
     \\/     M anipulation  |
\*---------------------------------------------------------------------------*/
FoamFile
{
    format      ascii;
    class       volScalarField;
    location    "13000";
    object      nut;
}
// * * * * * * * * * * * * * * * * * * * * * * * * * * * * * * * * * * * * * //

dimensions      [0 2 -1 0 0 0 0];

internalField   nonuniform List<scalar> 
24749
(
1.38487e-05
1.01696e-05
9.81681e-06
9.80358e-06
9.80352e-06
9.80304e-06
9.8026e-06
1.60259e-05
1.30347e-05
1.02594e-05
9.61841e-06
9.47998e-06
9.43867e-06
9.42604e-06
1.28304e-05
1.37562e-05
1.06077e-05
9.37407e-06
9.13319e-06
9.08285e-06
9.06762e-06
9.98683e-06
1.67284e-05
1.13847e-05
9.31644e-06
8.90225e-06
8.83457e-06
8.8165e-06
8.7978e-06
1.9293e-05
1.29741e-05
9.44899e-06
8.74552e-06
8.64935e-06
8.63023e-06
8.43948e-06
2.20973e-05
1.59556e-05
9.84628e-06
8.65502e-06
8.50388e-06
8.48209e-06
8.52439e-06
2.45998e-05
1.98119e-05
1.07093e-05
8.64489e-06
8.38674e-06
8.36001e-06
8.77543e-06
2.66075e-05
2.47074e-05
1.24456e-05
8.74228e-06
8.29236e-06
8.25672e-06
9.04494e-06
2.82246e-05
2.98504e-05
1.56436e-05
9.03561e-06
8.21999e-06
8.16783e-06
9.31945e-06
2.95801e-05
3.44095e-05
2.01623e-05
9.70242e-06
8.17495e-06
8.08968e-06
9.52702e-06
3.06703e-05
3.84129e-05
2.55818e-05
1.09792e-05
8.17467e-06
8.02106e-06
9.74292e-06
3.16155e-05
4.19296e-05
3.06629e-05
1.29773e-05
8.24719e-06
7.96066e-06
9.91674e-06
3.23473e-05
4.50203e-05
3.57113e-05
1.58073e-05
8.44221e-06
7.90907e-06
1.00175e-05
3.2882e-05
4.76854e-05
4.06123e-05
1.97715e-05
8.86097e-06
7.86873e-06
1.01694e-05
3.34215e-05
5.01036e-05
4.53774e-05
2.46666e-05
9.5433e-06
7.84111e-06
1.03953e-05
3.38779e-05
5.18331e-05
4.97615e-05
2.92892e-05
1.04955e-05
7.83021e-06
1.05977e-05
3.41632e-05
5.31543e-05
5.3259e-05
3.37812e-05
1.18321e-05
7.84365e-06
1.35649e-05
3.4909e-05
5.35258e-05
5.80692e-05
3.98673e-05
1.36759e-05
7.98343e-06
1.1188e-05
3.12057e-05
4.76051e-05
4.91019e-05
3.48467e-05
1.40408e-05
8.27676e-06
1.33107e-05
3.32436e-05
5.21567e-05
5.96768e-05
4.08755e-05
1.40213e-05
8.11003e-06
1.56717e-05
3.50413e-05
5.26957e-05
5.41932e-05
4.00116e-05
1.31251e-05
7.69302e-06
1.58702e-05
3.08207e-05
4.74261e-05
5.36655e-05
4.16265e-05
2.02065e-05
7.12226e-06
1.32446e-05
3.04956e-05
4.62099e-05
4.93284e-05
4.19605e-05
2.48885e-05
9.64394e-06
8.80068e-06
2.80125e-05
4.34569e-05
4.80605e-05
4.3345e-05
3.1711e-05
1.64891e-05
1.0747e-05
2.86901e-05
4.3696e-05
5.16515e-05
4.41606e-05
2.831e-05
1.30659e-05
5.27815e-06
2.39686e-05
4.15789e-05
4.69845e-05
4.37932e-05
3.42574e-05
2.2461e-05
6.97447e-06
2.53651e-05
4.13113e-05
5.04467e-05
4.45722e-05
3.30896e-05
1.85275e-05
3.47307e-06
2.1906e-05
3.83236e-05
4.59434e-05
4.34801e-05
3.45669e-05
2.50483e-05
4.41434e-06
2.17581e-05
3.90595e-05
4.82661e-05
4.3903e-05
3.39249e-05
2.46948e-05
3.38521e-06
2.11871e-05
3.76312e-05
4.57977e-05
4.4231e-05
3.70231e-05
2.52042e-05
3.52367e-06
2.023e-05
3.70999e-05
4.79134e-05
4.61201e-05
3.65088e-05
2.98042e-05
3.40845e-06
2.1208e-05
3.67836e-05
4.69111e-05
4.49639e-05
3.75183e-05
2.86507e-05
3.5025e-06
1.98843e-05
3.69068e-05
4.78734e-05
4.71281e-05
3.86897e-05
2.52525e-05
3.41412e-06
2.18494e-05
3.81495e-05
4.8096e-05
4.45998e-05
3.62986e-05
2.62086e-05
3.53364e-06
2.00717e-05
3.74179e-05
4.83645e-05
4.72299e-05
3.87253e-05
2.82186e-05
3.7823e-06
2.25918e-05
3.99403e-05
4.72448e-05
4.45545e-05
3.5864e-05
2.70864e-05
3.58387e-06
2.08824e-05
3.87578e-05
4.9236e-05
4.66692e-05
3.72773e-05
2.62547e-05
5.59652e-06
2.45965e-05
4.19766e-05
4.88052e-05
4.53794e-05
3.49555e-05
2.2911e-05
4.42807e-06
2.20547e-05
3.92757e-05
5.00863e-05
4.64116e-05
3.64946e-05
2.47352e-05
9.24594e-06
2.97818e-05
4.51118e-05
5.3764e-05
4.6906e-05
3.12684e-05
1.63774e-05
6.71793e-06
2.5107e-05
4.11906e-05
5.06223e-05
4.46562e-05
3.25193e-05
1.90579e-05
1.50285e-05
3.31931e-05
5.00975e-05
5.66324e-05
4.53632e-05
2.22412e-05
8.71509e-06
1.07223e-05
3.27812e-05
5.10453e-05
5.67645e-05
4.40511e-05
1.8982e-05
9.1871e-06
7.55398e-06
2.87928e-05
4.75542e-05
5.13323e-05
4.15342e-05
2.61418e-05
1.19941e-05
1.46605e-05
2.9235e-05
4.66526e-05
5.23975e-05
4.40524e-05
2.11599e-05
8.28733e-06
1.38459e-05
1.01712e-05
9.81706e-06
9.80365e-06
9.80356e-06
9.80307e-06
9.80255e-06
1.60033e-05
1.30477e-05
1.02627e-05
9.61734e-06
9.47962e-06
9.43731e-06
9.42327e-06
1.55782e-05
1.3166e-05
1.03559e-05
9.45217e-06
9.28362e-06
9.23944e-06
9.23067e-06
1.58308e-05
1.35648e-05
1.04388e-05
9.5446e-06
9.37844e-06
9.33484e-06
9.32024e-06
1.28058e-05
1.37357e-05
1.05858e-05
9.36546e-06
9.1312e-06
9.07933e-06
9.06842e-06
1.42097e-05
1.3766e-05
1.06318e-05
9.4326e-06
9.20684e-06
9.15557e-06
9.14555e-06
1.10536e-05
1.55503e-05
1.09371e-05
9.32279e-06
9.00561e-06
8.94491e-06
8.93192e-06
1.19698e-05
1.47198e-05
1.09102e-05
9.36844e-06
9.06707e-06
9.00889e-06
8.99651e-06
9.96387e-06
1.68437e-05
1.14294e-05
9.32775e-06
8.90269e-06
8.83093e-06
8.81643e-06
1.05807e-05
1.63533e-05
1.13448e-05
9.34838e-06
8.95352e-06
8.88565e-06
8.8714e-06
9.23965e-06
1.80546e-05
1.21305e-05
9.38443e-06
8.8193e-06
8.73277e-06
8.71744e-06
9.6706e-06
1.74785e-05
1.19461e-05
9.3826e-06
8.86131e-06
8.78018e-06
8.76492e-06
8.76009e-06
1.93824e-05
1.31402e-05
9.50359e-06
8.75452e-06
8.647e-06
8.63032e-06
9.07305e-06
1.88058e-05
1.28098e-05
9.47948e-06
8.78752e-06
8.68863e-06
8.67249e-06
8.48888e-06
2.0768e-05
1.45942e-05
9.70767e-06
8.70921e-06
8.57127e-06
8.5525e-06
8.7069e-06
2.02228e-05
1.40393e-05
9.65764e-06
8.73298e-06
8.60812e-06
8.59021e-06
8.37656e-06
2.21411e-05
1.62625e-05
1.00082e-05
8.68462e-06
8.50388e-06
8.48248e-06
8.52933e-06
2.16504e-05
1.55534e-05
9.91638e-06
8.69819e-06
8.53667e-06
8.51656e-06
8.38101e-06
2.34432e-05
1.81188e-05
1.04348e-05
8.68371e-06
8.44383e-06
8.41885e-06
8.48895e-06
2.30339e-05
1.7284e-05
1.02757e-05
8.68482e-06
8.47302e-06
8.44989e-06
8.46177e-06
2.46267e-05
2.02097e-05
1.10344e-05
8.71046e-06
8.39042e-06
8.3608e-06
8.54312e-06
2.4325e-05
1.92294e-05
1.07848e-05
8.69702e-06
8.41637e-06
8.38917e-06
8.58243e-06
2.56791e-05
2.25704e-05
1.18598e-05
8.76837e-06
8.34313e-06
8.30707e-06
8.65161e-06
2.54768e-05
2.14284e-05
1.14908e-05
8.73862e-06
8.36607e-06
8.33336e-06
8.71512e-06
2.66086e-05
2.52685e-05
1.30019e-05
8.87384e-06
8.30211e-06
8.25764e-06
8.7843e-06
2.64921e-05
2.39315e-05
1.2468e-05
8.81825e-06
8.3219e-06
8.28187e-06
8.85023e-06
2.74505e-05
2.80482e-05
1.45466e-05
9.04177e-06
8.26765e-06
8.21173e-06
8.9194e-06
2.73921e-05
2.68012e-05
1.38141e-05
8.95487e-06
8.28417e-06
8.23425e-06
8.99081e-06
2.82263e-05
3.03861e-05
1.65055e-05
9.29222e-06
8.24019e-06
8.16902e-06
9.0583e-06
2.82107e-05
2.92702e-05
1.55508e-05
9.15986e-06
8.25309e-06
8.18998e-06
9.12808e-06
2.8932e-05
3.26919e-05
1.87325e-05
9.64684e-06
8.22102e-06
8.12901e-06
9.19496e-06
2.89503e-05
3.16766e-05
1.76432e-05
9.46177e-06
8.22974e-06
8.14878e-06
9.26045e-06
2.95741e-05
3.48819e-05
2.12012e-05
1.01311e-05
8.21174e-06
8.0915e-06
9.32823e-06
2.96244e-05
3.40021e-05
1.99922e-05
9.87907e-06
8.21514e-06
8.10997e-06
9.38276e-06
3.01589e-05
3.69391e-05
2.38832e-05
1.07783e-05
8.21672e-06
8.05648e-06
9.45055e-06
3.02295e-05
3.61978e-05
2.25731e-05
1.04475e-05
8.21299e-06
8.07371e-06
9.49915e-06
3.06916e-05
3.8847e-05
2.6729e-05
1.15964e-05
8.23803e-06
8.02362e-06
9.56067e-06
3.07728e-05
3.82353e-05
2.52537e-05
1.11835e-05
8.22638e-06
8.03981e-06
9.59882e-06
3.11591e-05
4.0612e-05
2.92034e-05
1.25958e-05
8.28095e-06
7.99308e-06
9.66282e-06
3.12604e-05
4.01233e-05
2.77756e-05
1.21003e-05
8.25911e-06
8.00815e-06
9.68812e-06
3.15747e-05
4.22562e-05
3.16859e-05
1.3796e-05
8.35268e-06
7.96478e-06
9.75457e-06
3.16991e-05
4.18743e-05
3.0325e-05
1.32058e-05
8.31617e-06
7.9787e-06
9.7815e-06
3.19636e-05
4.38174e-05
3.4174e-05
1.52078e-05
8.46123e-06
7.93916e-06
9.84732e-06
3.21087e-05
4.35126e-05
3.28738e-05
1.45056e-05
8.40394e-06
7.95167e-06
9.87162e-06
3.23156e-05
4.53065e-05
3.664e-05
1.68427e-05
8.60757e-06
7.9159e-06
9.93399e-06
3.24661e-05
4.50618e-05
3.54245e-05
1.60125e-05
8.52421e-06
7.92701e-06
9.9488e-06
3.26162e-05
4.67155e-05
3.91247e-05
1.87709e-05
8.81123e-06
7.89562e-06
1.00072e-05
3.27611e-05
4.64996e-05
3.79885e-05
1.77924e-05
8.69295e-06
7.9051e-06
1.00165e-05
3.28887e-05
4.80207e-05
4.15522e-05
2.10442e-05
9.09621e-06
7.8792e-06
1.00662e-05
3.30135e-05
4.78362e-05
4.05241e-05
1.98981e-05
8.9358e-06
7.88665e-06
1.00729e-05
3.31298e-05
4.92157e-05
4.39117e-05
2.35153e-05
9.49155e-06
7.8684e-06
1.0123e-05
3.32537e-05
4.90649e-05
4.29843e-05
2.22878e-05
9.28337e-06
7.87323e-06
1.01332e-05
3.33525e-05
5.0327e-05
4.62213e-05
2.61121e-05
9.96847e-06
7.86149e-06
1.01788e-05
3.3478e-05
4.99785e-05
4.53919e-05
2.47308e-05
9.74525e-06
7.86597e-06
1.02488e-05
3.36174e-05
5.12427e-05
4.84416e-05
2.8319e-05
1.04491e-05
7.85635e-06
1.02663e-05
3.37264e-05
5.08289e-05
4.76233e-05
2.68933e-05
1.02126e-05
7.85842e-06
1.04385e-05
3.39324e-05
5.19387e-05
5.06029e-05
3.07011e-05
1.1022e-05
7.8567e-06
1.03936e-05
3.39634e-05
5.15836e-05
4.98101e-05
2.92268e-05
1.07412e-05
7.85568e-06
1.05329e-05
3.40018e-05
5.24305e-05
5.24959e-05
3.32208e-05
1.18167e-05
7.87399e-06
1.04734e-05
3.39953e-05
5.20905e-05
5.189e-05
3.1735e-05
1.14892e-05
7.86945e-06
1.05576e-05
3.39353e-05
5.26781e-05
5.39718e-05
3.56883e-05
1.29098e-05
7.92698e-06
1.04752e-05
3.38832e-05
5.22895e-05
5.38404e-05
3.45362e-05
1.25653e-05
7.91748e-06
1.02816e-05
3.30379e-05
5.17731e-05
5.30708e-05
3.58948e-05
1.38085e-05
7.95586e-06
1.05249e-05
3.38854e-05
5.25524e-05
5.54093e-05
3.69363e-05
1.34814e-05
7.94019e-06
1.0698e-05
3.27017e-05
4.95474e-05
5.02549e-05
3.53619e-05
1.54596e-05
8.21103e-06
1.3811e-05
3.47743e-05
5.19344e-05
5.10272e-05
3.89891e-05
1.86392e-05
9.31402e-06
1.11155e-05
3.47325e-05
5.33007e-05
5.50044e-05
3.81267e-05
1.50734e-05
8.14688e-06
1.34646e-05
1.03027e-05
9.86437e-06
9.82379e-06
9.81831e-06
9.81572e-06
9.8146e-06
1.33539e-05
1.03139e-05
9.87505e-06
9.82712e-06
9.81992e-06
9.81793e-06
9.81728e-06
1.32426e-05
1.02955e-05
9.87773e-06
9.83204e-06
9.8248e-06
9.82274e-06
9.8221e-06
1.3311e-05
1.03074e-05
9.87558e-06
9.82885e-06
9.82164e-06
9.81962e-06
9.81899e-06
1.33815e-05
1.03186e-05
9.87376e-06
9.82567e-06
9.81857e-06
9.81666e-06
9.816e-06
1.34466e-05
1.02978e-05
9.86433e-06
9.82449e-06
9.81926e-06
9.81675e-06
9.81574e-06
1.58615e-05
1.35745e-05
1.04487e-05
9.54932e-06
9.38005e-06
9.33746e-06
9.32447e-06
1.55969e-05
1.31822e-05
1.03668e-05
9.45653e-06
9.28505e-06
9.2417e-06
9.23132e-06
1.41974e-05
1.37844e-05
1.06571e-05
9.442e-06
9.20934e-06
9.15974e-06
9.14593e-06
1.10696e-05
1.55043e-05
1.0939e-05
9.3259e-06
9.00658e-06
8.94863e-06
8.93145e-06
9.2563e-06
1.79253e-05
1.20316e-05
9.35542e-06
8.81578e-06
8.73588e-06
8.71747e-06
8.54356e-06
2.07074e-05
1.43338e-05
9.6103e-06
8.69139e-06
8.57262e-06
8.55237e-06
8.44976e-06
2.34124e-05
1.77745e-05
1.01987e-05
8.63862e-06
8.44223e-06
8.41826e-06
8.63839e-06
2.56607e-05
2.2103e-05
1.14362e-05
8.67626e-06
8.33691e-06
8.30633e-06
8.9068e-06
2.7447e-05
2.75231e-05
1.38208e-05
8.85508e-06
8.25331e-06
8.21077e-06
9.18746e-06
2.89399e-05
3.21822e-05
1.77806e-05
9.31159e-06
8.19363e-06
8.12751e-06
9.42743e-06
3.01474e-05
3.64918e-05
2.27732e-05
1.02489e-05
8.16748e-06
8.05432e-06
9.63786e-06
3.11686e-05
4.02332e-05
2.81431e-05
1.18884e-05
8.19989e-06
7.98989e-06
9.8404e-06
3.20154e-05
4.35319e-05
3.32013e-05
1.42677e-05
8.3229e-06
7.93357e-06
9.96777e-06
3.26222e-05
4.63972e-05
3.81752e-05
1.76311e-05
8.61988e-06
7.88744e-06
1.00872e-05
3.31593e-05
4.89239e-05
4.30035e-05
2.21509e-05
9.17524e-06
7.85333e-06
1.02776e-05
3.36645e-05
5.10955e-05
4.76341e-05
2.69524e-05
9.97904e-06
7.83338e-06
1.04499e-05
3.39403e-05
5.25166e-05
5.15348e-05
3.15321e-05
1.11109e-05
7.8328e-06
1.18279e-05
3.5304e-05
5.35576e-05
5.62327e-05
3.75105e-05
1.27673e-05
7.88071e-06
1.58884e-05
1.0168e-05
9.70278e-06
9.67115e-06
9.67069e-06
9.65953e-06
9.65558e-06
1.51366e-05
1.04296e-05
9.72421e-06
9.67103e-06
9.66361e-06
9.66067e-06
9.65997e-06
1.34887e-05
1.03298e-05
9.86723e-06
9.81957e-06
9.81276e-06
9.81081e-06
9.81009e-06
1.50409e-05
1.03621e-05
9.73419e-06
9.68299e-06
9.67469e-06
9.67231e-06
9.67205e-06
1.32537e-05
1.02947e-05
9.87707e-06
9.83174e-06
9.82452e-06
9.82244e-06
9.82175e-06
1.51403e-05
1.04009e-05
9.72671e-06
9.67296e-06
9.66486e-06
9.66246e-06
9.66165e-06
1.49718e-05
1.03463e-05
9.73684e-06
9.68703e-06
9.67867e-06
9.67631e-06
9.67555e-06
1.32836e-05
1.03048e-05
9.87776e-06
9.83027e-06
9.82295e-06
9.82093e-06
9.82027e-06
1.3331e-05
1.0308e-05
9.87466e-06
9.82815e-06
9.82097e-06
9.81892e-06
9.81824e-06
1.3474e-05
1.03244e-05
9.86725e-06
9.82034e-06
9.81363e-06
9.81168e-06
9.81095e-06
1.58933e-05
1.01694e-05
9.70269e-06
9.6715e-06
9.6711e-06
9.66031e-06
9.65699e-06
1.19972e-05
1.47117e-05
1.09146e-05
9.37278e-06
9.06877e-06
9.01302e-06
8.99615e-06
9.70118e-06
1.74165e-05
1.18511e-05
9.35618e-06
8.8581e-06
8.78367e-06
8.76532e-06
8.75821e-06
2.01511e-05
1.37875e-05
9.56168e-06
8.7179e-06
8.60994e-06
8.59021e-06
8.54926e-06
2.29801e-05
1.69366e-05
1.00609e-05
8.646e-06
8.47214e-06
8.44945e-06
8.69519e-06
2.54081e-05
2.09865e-05
1.11003e-05
8.65846e-06
8.36101e-06
8.3327e-06
8.9576e-06
2.73245e-05
2.61819e-05
1.31401e-05
8.79163e-06
8.27201e-06
8.23334e-06
9.22267e-06
2.88746e-05
3.1103e-05
1.67109e-05
9.15617e-06
8.20563e-06
8.14744e-06
9.46536e-06
3.01218e-05
3.5648e-05
2.14729e-05
9.95568e-06
8.16963e-06
8.07178e-06
9.66657e-06
3.11701e-05
3.96097e-05
2.6741e-05
1.14199e-05
8.18562e-06
8.00527e-06
9.85902e-06
3.20223e-05
4.30515e-05
3.18687e-05
1.35989e-05
8.28095e-06
7.9469e-06
9.99715e-06
3.26611e-05
4.6032e-05
3.70105e-05
1.67427e-05
8.53779e-06
7.89843e-06
1.01114e-05
3.321e-05
4.86414e-05
4.19847e-05
2.0961e-05
9.01166e-06
7.86082e-06
1.02733e-05
3.36902e-05
5.06767e-05
4.67027e-05
2.5654e-05
9.75076e-06
7.83711e-06
1.04808e-05
3.4064e-05
5.21574e-05
5.09625e-05
3.03039e-05
1.07933e-05
7.83074e-06
1.09834e-05
3.47758e-05
5.34462e-05
5.47738e-05
3.53431e-05
1.23516e-05
7.86142e-06
1.49803e-05
1.03552e-05
9.73708e-06
9.68539e-06
9.67727e-06
9.67497e-06
9.6747e-06
8.58892e-06
2.15925e-05
1.52386e-05
9.76814e-06
8.67264e-06
8.53727e-06
8.51636e-06
8.59751e-06
2.42617e-05
1.88431e-05
1.04881e-05
8.64021e-06
8.4136e-06
8.38854e-06
8.82348e-06
2.64283e-05
2.34106e-05
1.19567e-05
8.70439e-06
8.31383e-06
8.2811e-06
9.08913e-06
2.81361e-05
2.87075e-05
1.47328e-05
8.93202e-06
8.2356e-06
8.18892e-06
9.35195e-06
2.95343e-05
3.34393e-05
1.89672e-05
9.48311e-06
8.18272e-06
8.10832e-06
9.56339e-06
3.06597e-05
3.76965e-05
2.41951e-05
1.0605e-05
8.17031e-06
8.03753e-06
9.76705e-06
3.16242e-05
4.13918e-05
2.92925e-05
1.2407e-05
8.21978e-06
7.97501e-06
9.93908e-06
3.23697e-05
4.45904e-05
3.44477e-05
1.50363e-05
8.38213e-06
7.92126e-06
1.00486e-05
3.29342e-05
4.73731e-05
3.9527e-05
1.87252e-05
8.74869e-06
7.87839e-06
1.01812e-05
3.34561e-05
4.97954e-05
4.44154e-05
2.34005e-05
9.34439e-06
7.84705e-06
1.03812e-05
3.39041e-05
5.14642e-05
4.89226e-05
2.79792e-05
1.02297e-05
7.83141e-06
1.05598e-05
3.42242e-05
5.28208e-05
5.2855e-05
3.26659e-05
1.1472e-05
7.83797e-06
1.20154e-05
3.50184e-05
5.34104e-05
5.81197e-05
3.93091e-05
1.32745e-05
7.90882e-06
9.10779e-06
1.87243e-05
1.26475e-05
9.42701e-06
8.78017e-06
8.69139e-06
8.67263e-06
1.06184e-05
1.63365e-05
1.12974e-05
9.33961e-06
8.95323e-06
8.88963e-06
8.87157e-06
1.51293e-05
1.04201e-05
9.72423e-06
9.67239e-06
9.66509e-06
9.66227e-06
9.66099e-06
1.50896e-05
1.03807e-05
9.73097e-06
9.67863e-06
9.67049e-06
9.66819e-06
9.6675e-06
1.5013e-05
1.03668e-05
9.73514e-06
9.68259e-06
9.67455e-06
9.67227e-06
9.67157e-06
1.50379e-05
1.03721e-05
9.73278e-06
9.681e-06
9.67288e-06
9.67061e-06
9.6705e-06
1.51545e-05
1.04009e-05
9.72553e-06
9.67251e-06
9.66449e-06
9.66213e-06
9.66166e-06
1.298e-05
1.49892e-05
1.12424e-05
9.62265e-06
9.23854e-06
9.15991e-06
9.14477e-06
1.58561e-05
1.15392e-05
9.87603e-06
9.57523e-06
9.52807e-06
9.51889e-06
9.51605e-06
8.13296e-06
2.17219e-05
1.7968e-05
1.10677e-05
8.94712e-06
8.6367e-06
8.59634e-06
9.55742e-06
1.83829e-05
1.33425e-05
9.93903e-06
9.05045e-06
8.90066e-06
8.8752e-06
8.15838e-06
2.43406e-05
2.20867e-05
1.24006e-05
9.00404e-06
8.51062e-06
8.4567e-06
8.47973e-06
2.66699e-05
2.71591e-05
1.46961e-05
9.22425e-06
8.41655e-06
8.34054e-06
8.87757e-06
2.85935e-05
3.17548e-05
1.84876e-05
9.7481e-06
8.35703e-06
8.24237e-06
9.22476e-06
3.00483e-05
3.61801e-05
2.33683e-05
1.07576e-05
8.34627e-06
8.15828e-06
9.5406e-06
3.11792e-05
4.0071e-05
2.85222e-05
1.23304e-05
8.39763e-06
8.08594e-06
9.71859e-06
3.19563e-05
4.33082e-05
3.33001e-05
1.47223e-05
8.57512e-06
8.02569e-06
9.9478e-06
3.26832e-05
4.63644e-05
3.82597e-05
1.78981e-05
8.90537e-06
7.97667e-06
1.00519e-05
3.31058e-05
4.88258e-05
4.28409e-05
2.2142e-05
9.46589e-06
7.94229e-06
1.00886e-05
3.33975e-05
5.07813e-05
4.71556e-05
2.71021e-05
1.05071e-05
7.93711e-06
1.0244e-05
3.37849e-05
5.21779e-05
5.12465e-05
3.18035e-05
1.18879e-05
7.96081e-06
1.05157e-05
3.42049e-05
5.33768e-05
5.48849e-05
3.6573e-05
1.34093e-05
8.00363e-06
1.02512e-05
3.36067e-05
5.39743e-05
5.7602e-05
4.1044e-05
1.58157e-05
8.14915e-06
1.58005e-05
1.15033e-05
9.8869e-06
9.59992e-06
9.55511e-06
9.54685e-06
9.54544e-06
8.33279e-06
2.04279e-05
1.62715e-05
1.05968e-05
8.95999e-06
8.71322e-06
8.67809e-06
8.30064e-06
2.12401e-05
1.69977e-05
1.07501e-05
8.94409e-06
8.67369e-06
8.63583e-06
1.64991e-05
1.22978e-05
1.02947e-05
9.72794e-06
9.59821e-06
9.55947e-06
9.5472e-06
1.35122e-05
3.39258e-05
5.23377e-05
5.65994e-05
4.3444e-05
1.87219e-05
8.94889e-06
1.57937e-05
1.15008e-05
9.89037e-06
9.60499e-06
9.55953e-06
9.55097e-06
9.54903e-06
1.58207e-05
1.11459e-05
9.77596e-06
9.49402e-06
9.44804e-06
9.43965e-06
9.43843e-06
8.088e-06
2.30421e-05
1.98873e-05
1.16502e-05
8.95981e-06
8.56956e-06
8.52305e-06
8.17581e-06
2.38671e-05
2.09309e-05
1.19765e-05
8.97754e-06
8.53977e-06
8.48925e-06
8.13269e-06
2.80906e-05
4.47835e-05
5.10244e-05
4.49407e-05
3.13294e-05
1.58908e-05
6.27365e-06
2.56987e-05
4.29938e-05
4.89341e-05
4.41663e-05
3.45957e-05
2.0777e-05
6.63025e-06
2.56477e-05
4.24674e-05
5.04794e-05
4.40516e-05
3.32237e-05
1.75431e-05
5.02295e-06
2.4305e-05
4.1139e-05
4.85532e-05
4.72528e-05
3.59133e-05
2.46535e-05
5.30105e-06
2.36431e-05
4.00352e-05
4.92697e-05
4.48316e-05
3.48017e-05
2.25453e-05
4.62774e-06
2.39043e-05
4.10501e-05
4.90558e-05
4.81813e-05
3.69175e-05
2.64162e-05
4.51798e-06
2.2311e-05
3.86962e-05
4.94361e-05
4.64167e-05
3.80349e-05
2.56575e-05
4.79108e-06
2.43174e-05
4.17485e-05
5.06187e-05
4.63688e-05
3.78883e-05
2.56879e-05
4.50549e-06
2.24647e-05
3.94156e-05
4.98905e-05
4.70996e-05
3.77096e-05
2.62628e-05
5.36581e-06
2.51279e-05
4.28358e-05
4.9584e-05
4.80206e-05
3.68624e-05
2.45562e-05
4.93931e-06
2.36206e-05
4.01743e-05
5.11218e-05
4.74773e-05
3.81065e-05
2.56848e-05
6.17647e-06
2.5483e-05
4.31317e-05
5.01814e-05
4.61157e-05
3.64078e-05
2.10298e-05
5.43276e-06
2.43414e-05
4.14346e-05
5.07423e-05
4.63489e-05
3.55425e-05
2.2853e-05
8.01182e-06
2.78088e-05
4.4915e-05
5.11298e-05
4.48399e-05
3.19004e-05
1.63248e-05
6.26149e-06
2.48308e-05
4.09035e-05
5.17776e-05
4.7635e-05
3.57298e-05
1.90147e-05
1.5906e-05
1.15791e-05
9.9108e-06
9.5955e-06
9.54381e-06
9.53387e-06
9.5316e-06
1.57884e-05
1.10592e-05
9.77485e-06
9.47583e-06
9.42378e-06
9.41277e-06
9.40949e-06
1.58115e-05
1.31932e-05
1.05637e-05
9.60588e-06
9.38742e-06
9.33363e-06
9.32288e-06
1.28499e-05
1.49822e-05
1.1263e-05
9.6282e-06
9.23092e-06
9.15151e-06
9.13518e-06
1.53849e-05
1.39491e-05
1.07289e-05
9.56941e-06
9.29663e-06
9.23279e-06
9.21915e-06
1.05977e-05
1.71846e-05
1.22476e-05
9.76245e-06
9.12546e-06
9.00881e-06
8.98689e-06
1.18577e-05
1.607e-05
1.15447e-05
9.63988e-06
9.1703e-06
9.0762e-06
9.0567e-06
9.41063e-06
1.83724e-05
1.34184e-05
9.9724e-06
9.04881e-06
8.89096e-06
8.86402e-06
1.01851e-05
1.82425e-05
1.25462e-05
9.76851e-06
9.07265e-06
8.94623e-06
8.92211e-06
8.66528e-06
1.93079e-05
1.48031e-05
1.02775e-05
8.99882e-06
8.79112e-06
8.75891e-06
9.14245e-06
1.89602e-05
1.38347e-05
1.00091e-05
9.00733e-06
8.838e-06
8.80906e-06
8.19155e-06
2.04324e-05
1.64287e-05
1.07276e-05
8.98172e-06
8.70612e-06
8.6677e-06
8.47376e-06
1.9976e-05
1.54615e-05
1.04103e-05
8.97856e-06
8.74686e-06
8.71184e-06
7.95029e-06
2.1701e-05
1.82454e-05
1.13165e-05
8.99853e-06
8.63308e-06
8.5868e-06
8.09364e-06
2.11784e-05
1.7258e-05
1.09673e-05
8.98425e-06
8.66889e-06
8.6263e-06
7.90543e-06
2.30332e-05
2.02851e-05
1.20417e-05
9.05098e-06
8.57049e-06
8.51407e-06
7.95782e-06
2.24988e-05
1.92075e-05
1.16322e-05
9.0205e-06
8.60134e-06
8.54961e-06
7.9934e-06
2.43506e-05
2.26011e-05
1.29284e-05
9.13798e-06
8.5166e-06
8.44837e-06
7.99003e-06
2.38384e-05
2.13847e-05
1.24288e-05
9.08752e-06
8.54304e-06
8.48052e-06
8.15651e-06
2.55965e-05
2.52801e-05
1.4067e-05
9.26994e-06
8.47079e-06
8.38877e-06
8.12401e-06
2.51307e-05
2.38807e-05
1.34323e-05
9.1937e-06
8.49314e-06
8.41809e-06
8.36829e-06
2.6763e-05
2.7777e-05
1.55613e-05
9.46689e-06
8.43356e-06
8.33414e-06
8.31358e-06
2.63424e-05
2.66383e-05
1.47505e-05
9.3548e-06
8.45174e-06
8.36104e-06
8.59253e-06
2.7806e-05
3.00996e-05
1.74531e-05
9.74296e-06
8.40532e-06
8.2837e-06
8.53625e-06
2.74546e-05
2.89771e-05
1.64401e-05
9.58351e-06
8.41841e-06
8.30848e-06
8.80722e-06
2.8722e-05
3.24409e-05
1.96265e-05
1.01312e-05
8.38869e-06
8.23729e-06
8.75607e-06
2.84349e-05
3.13518e-05
1.84854e-05
9.91369e-06
8.39608e-06
8.26015e-06
9.02271e-06
2.95426e-05
3.47277e-05
2.20504e-05
1.06494e-05
8.38593e-06
8.19427e-06
8.97343e-06
2.93108e-05
3.36866e-05
2.07914e-05
1.03593e-05
8.38572e-06
8.21547e-06
9.2154e-06
3.02365e-05
3.68635e-05
2.4664e-05
1.12978e-05
8.39805e-06
8.15451e-06
9.1759e-06
3.00581e-05
3.59146e-05
2.33079e-05
1.0929e-05
8.38825e-06
8.174e-06
9.37791e-06
3.08326e-05
3.88402e-05
2.72841e-05
1.21202e-05
8.43083e-06
8.11795e-06
9.35124e-06
3.06956e-05
3.79855e-05
2.60191e-05
1.16782e-05
8.41158e-06
8.13602e-06
9.53263e-06
3.13658e-05
4.06947e-05
2.96665e-05
1.31096e-05
8.48918e-06
8.08448e-06
9.51193e-06
3.12664e-05
3.99109e-05
2.8404e-05
1.25959e-05
8.45772e-06
8.10102e-06
9.67425e-06
3.18338e-05
4.24414e-05
3.20976e-05
1.42638e-05
8.57538e-06
8.0539e-06
9.65754e-06
3.17608e-05
4.17249e-05
3.08503e-05
1.36837e-05
8.53285e-06
8.06922e-06
9.78488e-06
3.22047e-05
4.40389e-05
3.44946e-05
1.56003e-05
8.69694e-06
8.02623e-06
9.7784e-06
3.2168e-05
4.34072e-05
3.32973e-05
1.49502e-05
8.64068e-06
8.04044e-06
9.85082e-06
3.24806e-05
4.54954e-05
3.68673e-05
1.71868e-05
8.87123e-06
8.00197e-06
9.86347e-06
3.24871e-05
4.49726e-05
3.5762e-05
1.64439e-05
8.79707e-06
8.01488e-06
9.91221e-06
3.27438e-05
4.68513e-05
3.92215e-05
1.90784e-05
9.11508e-06
7.98217e-06
9.93678e-06
3.2783e-05
4.6431e-05
3.81992e-05
1.81583e-05
8.99793e-06
7.9923e-06
9.99874e-06
3.30293e-05
4.82189e-05
4.16492e-05
2.12851e-05
9.43388e-06
7.96675e-06
1.00296e-05
3.31068e-05
4.78073e-05
4.06069e-05
2.01279e-05
9.24914e-06
7.97304e-06
1.00722e-05
3.32266e-05
4.9415e-05
4.39753e-05
2.37122e-05
9.81959e-06
7.95638e-06
1.01064e-05
3.33143e-05
4.8996e-05
4.29301e-05
2.23906e-05
9.55508e-06
7.95775e-06
1.01226e-05
3.33837e-05
5.03608e-05
4.61638e-05
2.62325e-05
1.02902e-05
7.95103e-06
1.01485e-05
3.34382e-05
4.99789e-05
4.51747e-05
2.48957e-05
9.98184e-06
7.94966e-06
1.01617e-05
3.3559e-05
5.11512e-05
4.82867e-05
2.84463e-05
1.08664e-05
7.9527e-06
1.01795e-05
3.35735e-05
5.07704e-05
4.7365e-05
2.71527e-05
1.05301e-05
7.94886e-06
1.01963e-05
3.37122e-05
5.18874e-05
5.02747e-05
3.06905e-05
1.15685e-05
7.96541e-06
1.02165e-05
3.37499e-05
5.1511e-05
4.94781e-05
2.94681e-05
1.12243e-05
7.95942e-06
1.02414e-05
3.38577e-05
5.25366e-05
5.21579e-05
3.29881e-05
1.23096e-05
7.98176e-06
1.02665e-05
3.39348e-05
5.21865e-05
5.14671e-05
3.17964e-05
1.19841e-05
7.97647e-06
1.03803e-05
3.41091e-05
5.31539e-05
5.40298e-05
3.53691e-05
1.30657e-05
7.99968e-06
1.03563e-05
3.41464e-05
5.28497e-05
5.3281e-05
3.40105e-05
1.27117e-05
7.99073e-06
1.07265e-05
3.45478e-05
5.35478e-05
5.63004e-05
3.80644e-05
1.39289e-05
8.0298e-06
1.05099e-05
3.43219e-05
5.33403e-05
5.50625e-05
3.62236e-05
1.35912e-05
8.01938e-06
1.06345e-05
3.40886e-05
5.33646e-05
5.67608e-05
3.99109e-05
1.53914e-05
8.19354e-06
1.04265e-05
3.38165e-05
5.30381e-05
5.65982e-05
3.89244e-05
1.51793e-05
8.18824e-06
1.05947e-05
3.36817e-05
5.2612e-05
5.66251e-05
4.1223e-05
1.73731e-05
8.52319e-06
1.01895e-05
3.30917e-05
5.20311e-05
5.78803e-05
4.16285e-05
1.73285e-05
8.53435e-06
1.58436e-05
1.15241e-05
9.89399e-06
9.60329e-06
9.55627e-06
9.5473e-06
9.54563e-06
1.58555e-05
1.11276e-05
9.77662e-06
9.49652e-06
9.44961e-06
9.44086e-06
9.43933e-06
1.58989e-05
1.15788e-05
9.90973e-06
9.59413e-06
9.54253e-06
9.53272e-06
9.53043e-06
1.58888e-05
1.11268e-05
9.78241e-06
9.4905e-06
9.44015e-06
9.43065e-06
9.42908e-06
1.58358e-05
1.1516e-05
9.88642e-06
9.59554e-06
9.54979e-06
9.54128e-06
9.53971e-06
1.58212e-05
1.15132e-05
9.88657e-06
9.59635e-06
9.55102e-06
9.54271e-06
9.54071e-06
1.58247e-05
1.11531e-05
9.77417e-06
9.48899e-06
9.44275e-06
9.43426e-06
9.43171e-06
1.58295e-05
1.11433e-05
9.773e-06
9.486e-06
9.43963e-06
9.43106e-06
9.42846e-06
1.58708e-05
1.15425e-05
9.89429e-06
9.59774e-06
9.54997e-06
9.54091e-06
9.53862e-06
1.58987e-05
1.11257e-05
9.78247e-06
9.48803e-06
9.43708e-06
9.42727e-06
9.42323e-06
1.6499e-05
1.22966e-05
1.02933e-05
9.72828e-06
9.59907e-06
9.5611e-06
9.54928e-06
1.09395e-05
3.08309e-05
4.67923e-05
5.20066e-05
4.47778e-05
2.60287e-05
1.21835e-05
8.44385e-06
2.80799e-05
4.39846e-05
5.28096e-05
4.53268e-05
2.85701e-05
1.35277e-05
1.04459e-05
2.99701e-05
4.64248e-05
5.58532e-05
4.60252e-05
2.4919e-05
1.09901e-05
1.07873e-05
1.70957e-05
1.22245e-05
9.7635e-06
9.13394e-06
9.01897e-06
8.99724e-06
1.20903e-05
1.60112e-05
1.1562e-05
9.64839e-06
9.1813e-06
9.08651e-06
9.06726e-06
1.03735e-05
1.82916e-05
1.24977e-05
9.7531e-06
9.07852e-06
8.95641e-06
8.93344e-06
8.77369e-06
1.92774e-05
1.47154e-05
1.02162e-05
8.99378e-06
8.80029e-06
8.77036e-06
8.63407e-06
2.0008e-05
1.53272e-05
1.03117e-05
8.96606e-06
8.75495e-06
8.72263e-06
1.58311e-05
1.20783e-05
1.00056e-05
9.5451e-06
9.45914e-06
9.42652e-06
9.41712e-06
1.5845e-05
1.20795e-05
1.00099e-05
9.54989e-06
9.46256e-06
9.43008e-06
9.4213e-06
9.04798e-06
2.92253e-05
3.30567e-05
1.962e-05
9.94422e-06
8.34979e-06
8.22015e-06
9.05308e-06
2.93627e-05
3.40126e-05
2.08188e-05
1.01817e-05
8.34409e-06
8.19866e-06
9.27775e-06
1.8969e-05
1.37892e-05
9.97703e-06
9.01009e-06
8.84819e-06
8.82068e-06
9.23131e-06
2.99754e-05
3.52985e-05
2.20503e-05
1.04293e-05
8.34233e-06
8.17807e-06
8.30465e-06
2.55604e-05
2.46259e-05
1.33928e-05
9.08863e-06
8.45976e-06
8.39615e-06
8.67748e-06
2.76902e-05
2.94307e-05
1.64051e-05
9.43267e-06
8.38147e-06
8.28949e-06
8.29115e-06
2.51434e-05
2.33077e-05
1.28536e-05
9.04248e-06
8.48497e-06
8.42583e-06
9.39796e-06
3.06612e-05
3.82268e-05
2.60719e-05
1.14668e-05
8.36275e-06
8.1206e-06
9.63072e-06
3.15788e-05
4.17224e-05
3.08821e-05
1.34076e-05
8.46474e-06
8.05414e-06
9.84184e-06
3.23612e-05
4.48889e-05
3.57985e-05
1.62225e-05
8.72302e-06
7.99992e-06
1.00213e-05
3.29342e-05
4.76691e-05
4.05815e-05
1.98151e-05
9.13224e-06
7.95624e-06
1.00519e-05
3.32186e-05
4.98195e-05
4.50072e-05
2.47135e-05
9.92621e-06
7.93603e-06
1.01627e-05
3.36188e-05
5.15442e-05
4.92999e-05
2.94225e-05
1.11677e-05
7.94533e-06
1.03515e-05
3.39769e-05
5.27868e-05
5.31336e-05
3.42107e-05
1.2645e-05
7.98034e-06
1.03103e-05
3.3761e-05
5.37088e-05
5.59649e-05
3.86124e-05
1.45928e-05
8.07518e-06
8.17165e-06
2.25546e-05
1.88436e-05
1.12888e-05
8.94594e-06
8.60228e-06
8.55891e-06
1.26916e-05
3.51306e-05
5.40429e-05
6.12816e-05
4.50037e-05
1.69526e-05
8.35846e-06
1.58577e-05
1.15694e-05
9.88444e-06
9.57406e-06
9.52492e-06
9.51529e-06
9.51273e-06
1.55251e-05
1.39885e-05
1.07612e-05
9.58386e-06
9.30527e-06
9.24179e-06
9.22771e-06
9.28205e-06
2.9693e-05
4.58674e-05
5.51996e-05
4.62045e-05
2.75505e-05
1.31025e-05
1.07415e-05
3.17942e-05
4.92611e-05
5.31737e-05
4.3764e-05
2.44813e-05
1.17259e-05
1.58461e-05
1.3164e-05
1.05369e-05
9.59861e-06
9.38852e-06
9.33892e-06
9.32725e-06
1.58445e-05
1.11435e-05
9.7758e-06
9.48721e-06
9.43968e-06
9.43069e-06
9.42772e-06
1.1145e-05
3.24653e-05
5.13512e-05
5.863e-05
4.58922e-05
1.98522e-05
8.9632e-06
8.85991e-06
2.98913e-05
4.83017e-05
5.36347e-05
4.0603e-05
2.0236e-05
9.02639e-06
1.11246e-05
3.36379e-05
5.02648e-05
5.53154e-05
4.33519e-05
2.11975e-05
9.65374e-06
1.00426e-05
3.27466e-05
5.08705e-05
5.99397e-05
4.49268e-05
1.91751e-05
8.86438e-06
9.4021e-06
3.06139e-05
3.74216e-05
2.46795e-05
1.10637e-05
8.35023e-06
8.13907e-06
1.57316e-05
1.11185e-05
9.7856e-06
9.47357e-06
9.42067e-06
9.40945e-06
9.40602e-06
1.14631e-05
3.53975e-05
5.27109e-05
5.57188e-05
4.03587e-05
1.68709e-05
8.32536e-06
1.06288e-05
3.45512e-05
5.39722e-05
5.7321e-05
3.95805e-05
1.50939e-05
8.10757e-06
1.04709e-05
3.42198e-05
5.30838e-05
5.42789e-05
3.52071e-05
1.30257e-05
7.99187e-06
1.03085e-05
3.39858e-05
5.18855e-05
5.06268e-05
3.04305e-05
1.14507e-05
7.94768e-06
1.01565e-05
3.35853e-05
5.03495e-05
4.65289e-05
2.59093e-05
1.02514e-05
7.93856e-06
1.01041e-05
3.32379e-05
4.85922e-05
4.19548e-05
2.10821e-05
9.33907e-06
7.95124e-06
1.04786e-05
3.41379e-05
5.33422e-05
5.61442e-05
3.78093e-05
1.41405e-05
8.05544e-06
1.03835e-05
3.41031e-05
5.24966e-05
5.24608e-05
3.27962e-05
1.22223e-05
7.96827e-06
1.02373e-05
3.38311e-05
5.11771e-05
4.86768e-05
2.8102e-05
1.07941e-05
7.93731e-06
1.01183e-05
3.3389e-05
4.95538e-05
4.43146e-05
2.35485e-05
9.76486e-06
7.9427e-06
1.00638e-05
3.30364e-05
4.73321e-05
3.95458e-05
1.8877e-05
9.01558e-06
7.96635e-06
9.88204e-06
3.24638e-05
4.44695e-05
3.46085e-05
1.54663e-05
8.64369e-06
8.0124e-06
9.66773e-06
3.16217e-05
4.11772e-05
2.96651e-05
1.29061e-05
8.43668e-06
8.07024e-06
9.76419e-06
3.20416e-05
4.28722e-05
3.21436e-05
1.41087e-05
8.52646e-06
8.04013e-06
9.99125e-06
3.27965e-05
4.5966e-05
3.71023e-05
1.70304e-05
8.79998e-06
7.9876e-06
8.85424e-06
2.83779e-05
3.07248e-05
1.74207e-05
9.58116e-06
8.3691e-06
8.26556e-06
8.45677e-06
2.63154e-05