/*--------------------------------*- C++ -*----------------------------------*\
  =========                 |
  \\      /  F ield         | OpenFOAM: The Open Source CFD Toolbox
   \\    /   O peration     | Website:  https://openfoam.org
    \\  /    A nd           | Version:  12
     \\/     M anipulation  |
\*---------------------------------------------------------------------------*/
FoamFile
{
    format      ascii;
    class       volScalarField;
    location    "13000";
    object      omega;
}
// * * * * * * * * * * * * * * * * * * * * * * * * * * * * * * * * * * * * * //

dimensions      [0 0 -1 0 0 0 0];

internalField   nonuniform List<scalar> 
24749
(
14547.6
7693.82
7245.33
7222.17
7220.47
7219.97
7219.71
16562.8
6800.81
4783
4461.93
4406.89
4395.82
4394.11
15717
5908.59
3241.28
2768.34
2720.1
2718.15
2716.68
15004.7
5804.49
2756.58
2015.11
1941.54
1939.52
1937.44
14486.3
6042.7
2825.55
1644.54
1508.59
1503.9
1501.88
14143.6
6251.51
3121.79
1505.42
1238.55
1226.76
1224.56
13950.2
6270.98
3326.76
1531.41
1063.42
1035.61
1033.09
13838.7
6167.38
3381.25
1643.6
953.306
896.415
893.273
13767.8
6026.2
3308.18
1788.08
897.896
791.314
786.822
13727.3
5879.35
3238.01
1913.8
895.258
710.498
703.073
13681.5
5749.53
3197.28
2004.06
938.096
648.918
635.681
13655.7
5636.38
3152.33
2050.37
1009.69
603.927
580.25
13636.3
5542.04
3103.15
2053.4
1092.9
575.395
534.084
13597.1
5467.28
3058.31
2032.09
1181.48
565.078
495.284
13589.2
5393.95
3006.15
2011.63
1261.19
572.019
462.356
13642.8
5330.08
2951.32
1988.96
1316.99
592.676
434.51
13700.2
5295.07
2910.21
1965.57
1351.99
623.692
411.402
14543.7
5129.2
2792.8
1878.28
1308.9
647.872
394.71
15057.9
5227.21
2757.71
1808.16
1226.18
627.061
401.676
14805.6
5379.33
2862.12
1888.39
1309.73
650.605
395.321
16274.9
4720.8
2554.9
1689.77
1141.59
625.658
411.52
16671.1
5067.55
2684.68
1738.89
1156.85
667.383
430.491
15200.3
5249.92
2835.39
1849.49
1236.97
728.744
448.811
13473.5
5548.42
3094.56
2022.38
1367.09
842.59
502.576
14182.3
5891.78
3200.14
2057.5
1383.84
814.383
463.497
11587.8
6204.86
3433.86
2255.21
1545.8
992.719
591.326
12614.5
6260.83
3457.97
2213.98
1490.88
921.997
535.945
9906.02
6815.22
3759.28
2475.62
1719.31
1140.09
691.331
10983.7
6649.17
3741.88
2404.88
1635.43
1053.39
619.62
9019.62
7211.54
3932.93
2571.32
1799.6
1223.12
763.325
9805.97
6893.15
3976.38
2577.22
1763.75
1169.87
699.144
8877.89
7201.71
3969.98
2564.65
1799.37
1227.44
767.725
9439.52
6962.74
4053.94
2608.95
1784.53
1199
736.655
9270.5
6904.63
3831.55
2501.96
1753.02
1190.46
741.082
9481.91
6888.93
4016.37
2587.37
1776.91
1191.67
732.808
10254.4
6559.25
3619.3
2383.03
1658.67
1104
660.535
10035.4
6719.37
3837.92
2482.35
1703.63
1135.63
686.288
11655.6
6180.34
3431.17
2244.01
1536.66
990.37
584.543
11038.6
6665.36
3743.74
2393.94
1623.13
1050.34
615.617
13554.1
5453.73
3017.56
1982.49
1350.46
829.427
493.462
12495.9
6333.61
3498.37
2228.45
1499.66
929.846
537.301
15551.4
4807.91
2639.44
1753.61
1199.66
701.516
433.939
14988.9
5408.67
2864.55
1871.61
1290.13
700.309
413.844
13840.8
5668.41
3032.92
1971.91
1345.65
781.873
446.378
15973.2
5813.53
3009.98
1928.35
1285.6
713.008
421.9
14544.6
7695.32
7245.58
7222.22
7220.49
7219.98
7219.66
16567.5
6803.3
4775.47
4451.54
4396.84
4385.16
4377.55
16247.6
6063.51
3767.55
3410.71
3370.72
3366.69
3362.15
16462.5
6535.61
4271.94
3883.25
3830.26
3822.11
3815.13
15763.6
5922.45
3227.66
2754.49
2707.77
2705.41
2700.41
16033.3
6191.79
3536.48
3055.7
3003.41
3000.12
2995.76
15353.6
5859.87
2912.88
2315.37
2256.48
2254.43
2249.75
15545.7
6036.85
3105.95
2521.12
2460.56
2458.5
2453.05
15039
5831.69
2769.72
2010.14
1932.85
1930.16
1925.61
15175.3
5917.83
2864.64
2155.36
2081.65
2079.22
2074.02
14758.9
5929.84
2763.4
1795.99
1690.74
1686.77
1682.76
14868.9
5925.32
2787.08
1900.16
1803.73
1800.22
1795.59
14509.8
6080.25
2856.78
1650.36
1503.8
1497.5
1493.87
14601.1
6041.56
2833.39
1723.73
1592.01
1586.63
1582.62
14303.9
6209.53
3011.15
1562.5
1356.17
1346.11
1342.68
14372.1
6170.94
2959.95
1608.86
1426.34
1417.86
1414.16
14146.8
6288.52
3155.36
1526.38
1238.19
1222.38
1219
14194.5
6263.83
3104
1547.44
1294.53
1281.3
1277.8
14032.7
6314.72
3269.18
1529.71
1143.55
1119.49
1116.04
14063.3
6305.94
3229.13
1530.95
1188.77
1168.68
1165.2
13949.8
6295.92
3348.28
1562.18
1068.06
1032.69
1029.09
13969.3
6302.63
3322.28
1549.1
1104.08
1074.33
1070.75
13888.3
6247.32
3388.13
1614.03
1008.59
958.598
954.6
13901.3
6264.32
3378.67
1591.53
1036.83
994.235
990.395
13839.3
6182.7
3389.08
1678.52
963.969
894.755
890.239
13849.7
6204.92
3396.27
1650.18
984.843
925.526
921.258
13799.4
6110.97
3356.26
1749.88
933.263
839.326
834.001
13806.8
6135.28
3377.18
1718.99
947.231
866.087
861.174
13768.9
6036.34
3310.62
1822.59
916.39
790.944
784.461
13773.9
6060.99
3333.69
1789.86
923.316
814.32
808.438
13743.7
5959.34
3273.48
1885.86
912.376
748.594
740.499
13747.6
5984.86
3290.41
1857.08
913.054
769.081
761.839
13723
5883.26
3247.57
1940.98
920.353
711.523
701.252
13725.4
5907.76
3258.86
1915.85
915.116
729.44
720.329
13703.6
5812.86
3225.89
1987.06
939.288
679.323
666.018
13706.4
5835.53
3235.54
1966.44
928.914
694.887
683.168
13686
5748.37
3203.7
2022.37
966.865
651.523
634.219
13688.1
5769.16
3213.74
2007.05
952.532
664.967
649.722
13668.9
5690.73
3180.78
2046.6
1000.87
627.972
605.403
13672
5709.61
3191.3
2036.69
983.831
639.371
619.474
13652.2
5638.07
3156.82
2059.81
1039.27
608.625
579.16
13655.5
5655.16
3167.66
2055.11
1020.45
617.927
591.98
13640.3
5587.52
3131.77
2062.42
1079.91
593.554
555.201
13641.8
5602.32
3142.22
2062.3
1060.09
600.598
566.899
13634.6
5541.15
3106.3
2055.71
1121.24
582.559
533.237
13633.8
5552.88
3115.67
2058.86
1100.88
587.313
543.939
13631.2
5500.79
3081.39
2044.15
1163.76
576.118
513.091
13630
5508.89
3089.94
2048.97
1142.91
578.464
522.901
13626.2
5464.06
3056.58
2032.17
1208.23
574.719
494.638
13625.5
5472.51
3065.72
2036.64
1186.5
574.575
503.632
13617.9
5430.51
3031.61
2023.32
1248.33
578.574
477.798
13618.7
5440.28
3041.59
2026.79
1229.05
576.045
486.035
13609.8
5398.91
3007.04
2014.92
1283.16
586.433
462.279
13608.9
5410.26
3018.16
2018.95
1267.04
582.478
469.969
13623
5363.33
2980.12
2004.87
1311.66
596.272
447.908
13607.9
5376.54
2992.65
2009.68
1298.47
591.12
454.959
13661.7
5326.26
2950.85
1991.49
1333.15
608.902
434.855
13628.9
5345.06
2966.68
1999.38
1324.48
602.617
441.279
13684.3
5309.31
2928.26
1978.33
1349.55
625.664
423.538
13661.4
5337.58
2947.73
1989.05
1345.29
618.535
429.376
13665.1
5307.46
2915.46
1966.81
1360.19
645.445
414.284
13660.7
5358.22
2941.46
1981.45
1362.15
639.196
419.588
13610.8
5331.05
2913.45
1958.63
1363.67
659.697
405.021
13661.4
5350.86
2926.27
1967.66
1368.64
655.737
409.864
13931.7
5320.51
2890.15
1929.73
1332.24
673.715
400.404
15139.1
4858.51
2710.5
1813.2
1235.45
678.526
412.604
13809
5220.63
2864.66
1924.92
1338.64
670.418
403.991
13928.2
7943.34
7407.71
7360.36
7354.45
7352.73
7352.14
13811.6
7992.23
7448.07
7393.97
7386.83
7385.37
7384.98
13702.2
8029.96
7500.53
7448
7440.87
7439.37
7438.97
13768.9
8006.1
7466.36
7413.23
7406.13
7404.64
7404.24
13838.6
7982.36
7433.85
7379.71
7372.65
7371.23
7370.85
13912.1
7950.46
7418.93
7372.11
7366.36
7364.68
7364.14
16448.1
6549.12
4290.88
3900.65
3846.22
3838.5
3837.65
16210.7
6059.63
3780.75
3423.97
3383.11
3379.57
3379.31
15992.5
6190.2
3556.79
3072.74
3018.36
3015.85
3015.8
15311.3
5837.24
2913.34
2325.3
2266.84
2265.33
2263.46
14725.1
5897.51
2740.41
1796.03
1697.63
1694.6
1692.64
14293.4
6169.66
2973.34
1549.3
1358.82
1351.44
1349.37
14033.2
6282.43
3241.83
1503.13
1141.53
1123.1
1120.74
13886.7
6229.18
3373.57
1581.04
1001.23
960.882
958.102
13798.4
6097.69
3353.82
1713.21
918.698
840.354
836.679
13745.6
5952.48
3266.91
1855.34
890.467
748.292
742.57
13705.6
5811.71
3216.54
1963.8
911.67
677.504
667.648
13665.9
5690.69
3175.91
2033.08
971.64
624.438
606.67
13648.3
5586.52
3127.39
2056.51
1050.42
587.431
556.132
13616.7
5503.88
3080.89
2044.01
1136.51
567.986
513.876
13587.2
5430.34
3032.97
2021.41
1224.22
566.689
478.174
13610.1
5359.76
2978.47
2001.13
1292.22
580.873
447.821
13664.3
5313.2
2929.73
1978.01
1337.52
607.4
422.422
14005.8
5210.11
2861.54
1932.47
1345.73
639.909
401.757
17297.7
6811.38
5978.33
5948.91
5946.07
5946.51
5952.16
15746
6683.27
6002.53
5970.56
5980.19
5990.48
6003.72
13943.5
7926.02
7366.02
7312.78
7305.99
7304.57
7304.1
15582.2
6756.96
6117.82
6085.52
6093.44
6103.2
6116.23
13713.9
8024.98
7496.35
7444.22
7437.13
7435.62
7435.17
15715.5
6691.51
6026.39
5992.54
6000.52
6010.67
6021.13
15486.9
6782.19
6153.68
6122.56
6130.79
6140.55
6148.77
13742.4
8018.71
7482.31
7428.25
7421.02
7419.52
7419.09
13789.5
7997.91
7457.83
7405.02
7397.95
7396.46
7396.01
13929.5
7930.44
7375.01
7322.34
7315.62
7314.2
7313.74
17279.8
6812.41
5986.13
5957.02
5954.12
5954.98
5964.97
15507.1
6017.89
3112.22
2533.41
2473.04
2471.61
2469.63
14838.5
5888.93
2764.75
1901.45
1811.65
1809.19
1806.99
14362.3
6124.76
2919.38
1596.37
1429.84
1423.78
1421.6
14067.7
6270.49
3196
1505.37
1187.73
1172.69
1170.37
13905.7
6243.91
3359.83
1558.29
1030.65
996.833
994.199
13811
6121.19
3371.96
1681.05
934.249
867.412
864.036
13751.2
5978.88
3285.04
1823.69
892.26
769.057
764.049
13713.5
5836.08
3225.74
1940.54
902.045
693.435
684.895
13670
5711.83
3185.63
2020.4
954.282
636.212
620.822
13649.8
5604.59
3138.04
2054.43
1029.81
595.144
567.921
13624.4
5520.89
3091.83
2049.82
1115.91
571.584
523.82
13589.8
5443.8
3044.05
2026.06
1203.66
565.37
486.57
13596.2
5369.27
2989.44
2005.02
1276.98
575.904
454.944
13652.9
5319.94
2940.12
1983.61
1328.67
599.818
428.357
13792.6
5255.52
2887.59
1950.72
1351.69
633.273
406.384
15476.1
6776.84
6142.76
6110.53
6118.79
6128.67
6140.81
14194.7
6221.23
3063.95
1527.85
1295.76
1286.18
1283.95
13975.7
6274.43
3296.08
1518.85
1100.53
1077.58
1075.14
13852.4
6188.74
3384.68
1614.61
975.56
927.484
924.544
13776.6
6050.55
3331.24
1753.37
906.291
814.983
810.951
13732.2
5905.96
3249.67
1886.02
890.94
728.722
722.261
13689.9
5772.56
3206.37
1986.09
924.15
662.778
651.274
13658.5
5655.85
3162.2
2042.88
990.047
613.634
593.144
13640.5
5558.77
3114.11
2056.12
1072.2
581.063
544.897
13604.3
5483.31
3069.39
2038.44
1160.27
566.418
504.446
13586.1
5405.24
3017.15
2015.68
1243.19
568.712
470.125
13621.9
5340.13
2963.38
1994.57
1305.37
586.441
441.052
13675.4
5302.19
2918.75
1971.31
1345.82
615.671
416.781
14219.7
5236.29
2852.21
1920.17
1343.17
649.229
397.853
14576.4
5998.88
2800.91
1718.63
1597.7
1593.81
1591.66
15140.8
5884.62
2852.25
2162.07
2091.83
2090.23
2087.88
15741.5
6692.42
6017.27
5985.91
5995.52
6005.48
6013.39
15629.7
6732.19
6080.55
6047.65
6055.64
6065.35
6075.13
15506.2
6760.51
6118.49
6085.8
6094.06
6103.82
6112.36
15544.2
6747.8
6101.87
6069.73
6078.04
6088.13
6102.38
15739.9
6688.61
6023.23
5989.57
5997.47
6007.63
6020.75
15815.1
6490.48
3751.83
3105.13
3003.37
2992.44
2990.11
16474.7
6670.72
5159.38
4970.09
4953.72
4957.66
4961.79
13928.1
6411.37
3292.22
1767.28
1449.94
1423.37
1420.42
14733.2
6266.06
3198.69
2255.08
2096.82
2080.84
2078.24
13712.5
6368.84
3402.91
1716.04
1216.51
1173.96
1170.61
13635.7
6217.4
3396.8
1778.59
1071.81
999.174
994.782
13610.4
6036.2
3322.21
1891.85
997.425
871.351
864.783
13597.1
5863.14
3272.22
1994.09
984.402
775.818
764.84
13604
5711.99
3217.24
2057.39
1016.02
704.156
685.744
13568
5602.62
3164.6
2081.23
1078.56
653.73
621.918
13574.9
5498.56
3103.54
2065.28
1150.61
621.547
569.237
13555.9
5423.87
3046.45
2039.74
1229.76
608.198
525.57
13506.9
5371.29
3000.4
2024.84
1302.9
617.132
489.482
13523.6
5315.61
2950.48
2003.05
1352.57
640.296
459.478
13602.5
5252.49
2895.3
1969.32
1375.35
668.622
434.528
13585.2
5301.54
2893.28
1954.81
1392.52
708.43
415.947
16322.7
6765.97
5367.98
5189.35
5174.08
5178.59
5187
14113.1
6379.07
3224.08
1863.59
1613.94
1591.93
1589
14010.3
6362.23
3236.09
1799.56
1526.36
1502.93
1499.68
18120.8
7668.61
5652.6
5267.56
5183.88
5162.09
5156.15
14589.1
5134.37
2779.84
1845.8
1284.64
702.878
410.718
16341
6788.58
5398.25
5220.47
5204.83
5209.07
5214.72
16310.8
6159.08
4639
4494.5
4491.2
4501.11
4516.03
13798.6
6407.92
3357.46
1722.12
1319.99
1286.83
1283.75
13742.6
6377.57
3377.17
1712.83
1265.37
1227.89
1224.57
12869.6
5571.82
3117.24
2053.88
1401.87
860.393
502.578
11800.6
5826.7
3281.27
2178.11
1502.45
961.962
566.322
12216.7
6145.7
3404.73
2195.8
1487.57
915.477
528.89
10949.2
6097.72
3444.38
2298.91
1595.43
1051.58
621.123
11321.7
6313.41
3568.64
2323.33
1585.86
1017.64
595.225
10687
6167.44
3467.82
2310.04
1609.16
1077.68
646.52
10798.5
6492.28
3700.17
2400.78
1645.16
1074.19
640.04
10740
6091.64
3448.18
2290.13
1605.38
1072.45
648.645
10779.2
6439.53
3648.3
2363.04
1619.75
1072
648.3
11141.7
5900.17
3350.04
2236.74
1556.62
1034.67
616.54
10919.5
6327.07
3630.26
2358.95
1622.1
1066.01
638.18
11828.9
5886.81
3305
2174.99
1496.14
964.893
567.286
11416.3
6235.87
3512.06
2278.53
1558.45
1014.32
597.154
12882.6
5618.43
3125.59
2053.21
1403.24
863.968
503.353
12165.4
6380.39
3546.89
2257.99
1520.91
948.688
546.413
16528.2
6775.37
5286.73
5086.45
5066.14
5069.46
5077.87
16574.6
6126.79
4468.26
4309.14
4303.69
4313.09
4322.57
16640.7
6827.3
4397.29
3905.81
3826.27
3816.72
3820
15839.9
6502.63
3731.91
3075.44
2969.44
2959.13
2956.9
16293.6
6509.42
3929.46
3408.37
3328.31
3319.28
3318.72
15157.1
6336.38
3369.99
2572.12
2437.31
2423.47
2420.33
15487.5
6277.04
3465.02
2785.36
2675.79
2663.73
2660.15
14726.1
6311.32
3203.64
2235.05
2069.44
2052.87
2049.5
14947.2
6180.96
3193.58
2368.1
2235.26
2221.42
2217.92
14388.4
6367.8
3191.88
2008.66
1800.67
1780.77
1777.24
14555.7
6242.9
3129.28
2092.41
1922.9
1906.35
1902.65
14104.2
6445.15
3257.96
1865.89
1597.19
1572.2
1568.68
14234.1
6362.23
3191.46
1917.97
1691.36
1669.94
1666.32
13882.7
6492.57
3340.9
1786.84
1439.24
1407.03
1403.26
13975.1
6455.19
3286.92
1814.63
1513.37
1485.2
1481.44
13740.4
6488.28
3409.9
1756.35
1315.12
1273.18
1268.97
13795.8
6483.49
3370.7
1763.71
1373.66
1336.86
1332.76
13657.8
6434.7
3447.27
1758.91
1216.89
1162.71
1158
13687.5
6452.51
3426.21
1751.48
1262.98
1215.48
1210.92
13612.8
6351.99
3448.84
1785.53
1139.98
1070.15
1064.86
13626.7
6383.32
3447.07
1767.86
1175.71
1114.52
1109.46
13593.9
6254.83
3418.92
1829.28
1081.79
991.65
985.532
13595.5
6293.27
3432.45
1804.98
1108.37
1029.4
1023.64
13588.1
6152.53
3376.33
1883.86
1040.62
924.447
917.172
13585.7
6193.43
3393.08
1854.93
1058.45
956.796
950.076
13583
6050.21
3341.47
1936.88
1016.2
866.59
857.73
13581
6092.73
3354.07
1909.42
1025.97
894.499
886.427
13585.2
5950.86
3313.99
1986.21
1006.7
816.597
805.501
13579.4
5991.76
3324.26
1961.15
1009
840.691
830.759
13589.4
5859.55
3286.12
2027.45
1009.67
773.316
759.287
13583.6
5896.66
3296.62
2006.45
1005.63
794.051
781.644
13588
5778.12
3257.15
2059.43
1024.23
736.09
718.175
13584.8
5812.07
3269.35
2044.03
1015.42
753.979
738.128
13586.5
5705.5
3227.18
2080.88
1047.17
704.38
681.377
13581.5
5735.52
3241.1
2071.38
1034.97
719.631
699.263
13587.2
5640.27
3194.97
2090.74
1075.54
677.666
648.261
13581.1
5667.22
3210.72
2087.45
1061.46
690.617
664.398
13583.6
5582.69
3163.43
2090.17
1107.32
655.787
618.348
13580.1
5607.34
3179.03
2092.3
1092.44
666.526
632.991
13567.8
5536.78
3135.23
2082.9
1142.26
639.008
591.22
13570.7
5560.25
3150.61
2088.58
1126.7
647.494
604.554
13550.6
5494.7
3107.34
2071.8
1180.57
627.45
566.573
13555.5
5514.54
3121.79
2078.13
1162.81
633.003
578.653
13547.8
5454.08
3078.42
2060.32
1221.72
620.852
544.075
13548.6
5465.03
3089.94
2064.19
1200.82
623.07
554.998
13555.2
5419.41
3048.58
2049.6
1261.45
618.762
523.503
13551.5
5420.36
3057.38
2051.79
1240.18
617.62
533.348
13559.3
5387.05
3018.49
2038.28
1295.37
621.323
504.703
13555.3
5388.15
3027.57
2040.96
1277.19
618.017
513.692
13553.8
5357.16
2991.3
2028.04
1324.93
628.661
487.628
13552.1
5364.61
3001.96
2031.99
1310.05
623.715
495.862
13540.8
5331.65
2967.95
2017.71
1350.07
640.262
472.255
13540.7
5342.26
2979.1
2022.81
1338.54
634.305
479.805
13534.5
5307.71
2946.46
2006.87
1370.28
653.841
458.161
13529.3
5320.55
2958.24
2012.77
1361.46
647.578
465.158
13564.6
5273.96
2920.81
1991.9
1382.8
667.885
445.265
13532.1
5291.23
2935.65
2000.73
1378.63
661.494
451.58
13667.3
5230.83
2887.64
1969.17
1384.77
681.675
433.909
13567.4
5272.75
2916.55
1987.75
1390.66
677.362
439.647
13665.6
5239.55
2873.61
1952.15
1380.23
699.231
426.813
13616.7
5338.26
2922.77
1980.28
1398.44
700.271
432.38
13592.7
5280.5
2890.7
1949.03
1377.96
719.619
423.584
13581.2
5445.91
2956.21
1982.52
1401.63
725.294
429.149
16422.8
6794.89
5374.54
5191.56
5174.4
5178.08
5186.75
16388.9
6171.57
4647.18
4501.9
4497.6
4507.05
4521.21
16509.4
6767.46
5278.82
5078.93
5058.93
5062.35
5069.22
16479.3
6174.15
4586.7
4431.88
4425.75
4435.03
4451.33
16369
6752.68
5327.48
5145.68
5129.86
5134.34
5143.91
16339.2
6753.32
5338.59
5157.66
5142.09
5146.49
5152.17
16309.2
6154.21
4606.69
4459.39
4456.09
4465.72
4471.43
16325.9
6147.12
4586.44
4437.9
4434.34
4443.87
4450.13
16445.1
6776.5
5329.36
5142.57
5125.03
5128.6
5134.63
16503.4
6172.98
4566.97
4409.93
4403.43
4411.96
4412.82
18100
7669.71
5663.69
5280.94
5197.76
5176.67
5173.79
13926.8
5310.28
2959.22
1952.04
1331.26
780.449
454.41
13131
5989.25
3291.71
2123.25
1439.58
844.747
477.487
13852.1
5826.76
3166.64
2051.58
1406.66
796.6
444.475
15159.5
6326.92
3392.4
2602.33
2468.99
2454.82
2452.25
15476.8
6292.11
3501.19
2820.86
2711.49
2698.63
2694.78
14958.3
6145.58
3202.17
2394.43
2266.07
2252.25
2248.85
14378.7
6315.64
3174.12
2019.96
1823.15
1804.58
1801.9
14236.2
6294.7
3162.54
1921.81
1710.98
1691.64
1688.36
16450.7
6442.68
4611.25
4375.81
4349.17
4347.25
4351.59
16434.3
6451.55
4636.03
4401.59
4374.42
4372.33
4377.23
13600.1
5980.65
3304.55
1919.08
988.585
844.874
837.368
13601.1
5946.73
3295.29
1946.28
984.047
820.148
811.746
14552.1
6200.76
3124.98
2111.4
1949.16
1932.97
1929.72
13593.3
5892.1
3279.37
1969.78
981.569
797.078
787.516
13664.8
6301.42
3416.9
1738.28
1134.87
1079.38
1075.62
13618.4
6127.57
3357.99
1832.92
1025.97
930.484
925.24
13678
6325.89
3410.24
1723.76
1173.42
1124.73
1121.07
13602.6
5783.05
3246.45
2031.28
995.643
737.306
723.055
13586.8
5653.95
3190.59
2073.96
1044.41
676.365
652.219
13568.3
5547.91
3134.6
2077.45
1114.55
635.542
594.342
13573.7
5455.74
3073.15
2050.12
1187.93
611.951
546.347
13526.1
5399.59
3023.68
2032.36
1268.95
610.159
506.687
13507.6
5342
2975.46
2015.32
1331.13
627.554
473.776
13555.1
5285.9
2923.56
1987.71
1367.39
654.477
446.435
13562.3
5277.14
2890.65
1961.04
1385.48
689.095
424.962
13853.2
6389.33
3313.64
1733.72
1381.01
1351.81
1348.67
14352.2
5081.3
2783.19
1880.42
1334.18
706.679
408.725
16470.6
6667.02
5136.83
4942.62
4925.47
4929.6
4937.17
16300.4
6565.27
3981.43
3450.96
3368.11
3358
3357.63
13503.3
5878.16
3197.44
2067.78
1415.72
827.372
469.35
13855.8
5228.83
2871.73
1900.41
1308.23
758.778
444.545
16649
6815.36
4404.45
3924.64
3848.82
3840.88
3844.51
16370
6155.53
4584.77
4434.35
4429.98
4439.12
4444.56
14242.2
5542.88
2954.24
1942.77
1366.03
743.098
415.203
13146.6
5630.44
3046.77
2010.16
1415.87
758.19
424.896
13652.3
5230.1
2905.69
1936.46
1345.64
744.709
429.165
13580.6
5520.95
2979.45
1979.57
1397.35
742.62
426.097
13592.5
5809.86
3256.05
2012.44
987.51
755.668
743.267
16481.1
6119.94
4449.87
4286.7
4281.5
4291.23
4300.71
13678.2
5163.71
2860.01
1928.26
1366.09
716.234
413.027
13567.5
5250.67
2878.68
1951.23
1385.84
696.689
420.089
13560.1
5266.32
2909.61
1978.93
1373
661.59
440.376
13512.5
5310.04
2956.11
2005.8
1340.78
632.208
466.256
13511.2
5386.65
3013.34
2028.99
1287.79
613.957
498.019
13555.8
5441.49
3061.76
2045.79
1211.85
610.724
535.874
13590.6
5286.79
2900.96
1968.08
1383.37
680.75
430.166
13530.9
5284.7
2931.62
1992.66
1359.08
646.258
452.717
13506.4
5345.09
2983.99
2018.21
1316.97
621.226
481.321
13533.2
5419.47
3039.1
2037.78
1252.31
610.361
516.145
13566.9
5469.64
3086.59
2057.22
1170.71
616.255
557.541
13562.1
5565.72
3147.15
2079.92
1096.99
644.015
607.755
13588.3
5676.78
3203.84
2068.18
1031.32
690.122
668.59
13570.1
5624.18
3178.14
2079.97
1062.91
664.951
636.726
13566
5511.84
3116.04
2070.86
1132.74
627.659
581.443
13607.3
6072.47
3336.86
1862.91
1009.89
899.927
893.951
13641
6248.81
3406.89
1757.12
1101.36
1037.76
1033.6
13617.6
6163.97
3376.24
1806.4
1047.18
963.645
958.714
13595.6
5737.7
3229.84
2045.41
1004.93
720.108
703.872
13510.6
5787.18
3201.54
1964.73
975.514
718.412
700.554
13501.5
5873.17
3229.54
1924.09
963.369
753.894
739.795
13496.7
5811.88
3209.85
1942.94
966.308
734.736
719.479
13632.6
6143.05
3334.52
1673.26
1024.23
957.409
953.536
13706.7
6181.18
3308.2
1608.95
1076.65
1030.4
1027.71
13658.6
6165.29
3329.38
1642.38
1049.22
992.54
989.277
13786.6
6201.59
3243.86
1565.52
1147.44
1116.33
1114.43
13734.9
6194.36
3283.22
1586.51
1110.14
1071.58
1069.3
14709.8
5701.8
2715.85
1982.73
1913.58
1912.02
1911.93
13447.9
5672
3161.89
2023.58
1030.9
664.247
634.03
13450
5553.73
3112.44
2038.9
1107.61
628.764
579.392
13495.8
5715.67
3173.95
1995.87
996.912
688.125
665.536
13493.2
5746.05
3187.4
1981.92
985.995
702.633
682.614
13461
5706.56
3175.47
2015.16
1017.15
676.484
649.494
13433.8
5613.84
3142
2039.22
1069.87
645.14
605.456
13439.1
5564.28
3120.87
2037.3
1087.25
635.026
591.947
13590.7
5209.19
2870.76
1939.03
1349.74
677.984
431.675
13464.3
5449.64
3051.78
2016.24
1184.64
609.055
534.016
13381.6
5408.25
3017.66
2007.47
1261.16
613.747
497.143
13389.2
5351.78
2972.92
1994.23
1318.83
635.689
467.125
13456.9
5286.35
2918.37
1967.18
1350.49
666.311
442.814
13453.7
5267.85
2906.73
1959.9
1355.79
673.345
437.222
14069.8
6088.35
2994.01
1566.07
1351.7
1340.49
1339.56
13162
5479.39
3005.13
1993.15
1399.93
750.09
428.658
13582
5169.47
2882.8
1927.25
1340.43
763.247
444.437
15810.8
6050.78
3642.35
3266.69
3228.53
3231.74
3234.83
16629
6578.15
4199.77
3795.93
3746.17
3747.57
3753.76
12561.4
5533.23
3093.72
2048.78
1404.5
855.932
499.73
16291.3
6516.12
4352.32
3994.67
3952.33
3955.39
3966.6
13899.5
6176.35
3134.81
1545.9
1237.49
1218.29
1216.96
13821.5
6201.22
3199.74
1555.39
1190.26
1165.07
1163.46
11919.5
5719.87
3230.79
2149.58
1479.34
941.165
554.923
12141.7
6040.11
3348.87
2172.71
1477.2
905.402
524.224
11586.7
5831.57
3304.14
2200.37
1521.78
988.669
589.199
11639.8
6275.09
3550.38
2305.62
1567.61
996.774
584.086
11565.3
5773.38
3262.41
2170.27
1504.32
992.591
597.721
11559.6
6233.04
3522.42
2284.04
1557.8
1010.24
601.677
11561.5
5730.61
3265.92
2170.12
1506.63
985.629
590.127
11576.3
6199.2
3489.84
2263.53
1545.61
1007.78
603.791
11972.8
5652.61
3194.4
2117.09
1461.57
945.528
559.116
11547.7
6096.65
3437.75
2240.43
1534.02
988.931
583.574
12608.9
5675.87
3165.89
2071.81
1417.33
876.622
510.335
12637.6
6015.65
3310.43
2132.69
1453.33
866.5
492.073
12032.7
6274.45
3483.61
2224.06
1505.74
944.631
546.338
16696.9
6655.11
4275.15
3856.41
3799.61
3799.07
3804.51
15736.3
6049.03
3696.55
3315.1
3271.78
3273.19
3275.29
16319
6528.21
4310.73
3937.22
3890.92
3892.64
3896.46
15200.4
5877.37
3122.33
2644.68
2599.47
2601.69
2603.01
15523.8
6079.16
3401.75
2934.76
2886.83
2890.15
2893.39
14992.7
5788.23
2808.22
2224.62
2175.53
2176.77
2177.23
15105.7
5802.4
2926.76
2410.9
2365.29
2367.56
2368.49
14755.6
5781.94
2712.2
1941.4
1871.75
1871.13
1871
14854.2
5714.01
2722.49
2064.88
2009.07
2009.8
2009.82
14498.4
5886.45
2742.67
1742.58
1643.28
1640.71
1640.33
14614.9
5799.52
2701.97
1829.85
1748.91
1747.69
1747.42
14233.8
6040.89
2868.44
1611.27
1465.73
1460.58
1459.84
14355.1
5981.18
2803.81
1670.79
1549.15
1545.6
1545.03
14037.1
6161.77
3021.59
1540.54
1325.26
1315.66
1314.57
14121.9
6126.72
2954.34
1572.51
1391.68
1384.43
1383.48
13913.7
6212.36
3152.79
1514.93
1212.43
1196.88
1195.4
13972.3
6199.77
3092.01
1522.59
1265.54
1253.45
1252.18
13821
6219.93
3256.03
1527.9
1122.26
1097.98
1096.11
13866.5
6224.44
3208.24
1516.14
1164.44
1145.28
1143.64
13756
6194.53
3325.94
1572.18
1051.4
1014.4
1011.98
13782.2
6216.68
3297.45
1546.93
1084.52
1054.47
1052.36
13712.9
6140.29
3350.31
1632.03
995.978
942.881
939.764
13734.1
6170.93
3342.64
1598.89
1021.45
977.206
974.517
13667.4
6080.61
3338.44
1704.38
956.029
881.334
877.261
13690.1
6113.51
3348.5
1665.97
973.882
910.946
907.419
13635.2
6016.22
3303.67
1779.23
931.989
828.029
822.512
13646.1
6050.77
3322.83
1742.3
941.981
853.63
848.959
13619.3
5944.36
3262.52
1843.05
919.936
781.392
774.124
13627.1
5977.47
3278.46
1809.54
922.952
803.601
797.479
13598.9
5872.06
3233.3
1900.51
921.181
740.895
731.166
13607
5906.75
3243.69
1870.56
917.795
760.131
751.965
13571.8
5802.31
3213.7
1952.32
935.672
705.962
692.781
13579.4
5839.37
3223.91
1927.44
927.035
722.624
711.406
13564.5
5732.28
3193.42
1993.74
960.301
676.064
658.306
13562.4
5768.02
3204.3
1974.29
946.892
690.186
675.044
13567.2
5666.15
3167.89
2021.62
990.956
650.241
627.239
13558.5
5700.35
3181.88
2009.35
975.085
662.464
642.357
13545.4
5615.43
3145.63
2040.46
1028.19
629.22
599.178
13550.4
5651.9
3162.03
2034.48
1011.36
639.868
612.961
13499.1
5581.33
3129.11
2050.95
1071.73
613.668
573.741
13518.2
5616.21
3145.13
2050.07
1052.93
622.017
586.305
13480.8
5537.62
3108.65
2050.46
1117.51
602.998
550.567
13488.6
5560.72
3120.05
2051.83
1095.13
607.653
561.877
13490.1
5499.64
3084.38
2039.72
1162.4
596.246
529.247
13491.7
5495.8
3086.96
2040.21
1136.97
597.185
539.408
13506.9
5464.68
3057.14
2025.27
1203.96
594.7
509.801
13500.3
5454.07
3059.24
2025.55
1179.98
592.954
518.987
13509.1
5427.03
3028.24
2013.31
1240.34
596.702
491.985
13502.2
5430.73
3036.66
2015.49
1220.57
593.74
500.464
13495.1
5390.14
3001.37
2003.58
1272.72
602.861
475.759
13493.2
5408.88
3015.13
2008.13
1256.97
599.315
483.685
13466.2
5366.27
2981.77
1998.07
1303.15
614.153
461.17
13473.2
5388.96
2996.46
2002.56
1289.71
609.465
468.552
13446
5347.63
2965.07
1992.98
1329.76
629.552
448.208
13449.5
5361.06
2976.24
1996.62
1317.83
622.226
454.641
13550.8
5278.55
2923.37
1972.04
1341.75
642.415
435.83
13448
5309.63
2947.22
1984.21
1337.32
636.231
441.839
13685
5251.62
2890.64
1952.12
1348.63
663.125
427.011
13529.8
5342.01
2943.24
1980.71
1357.59
657.416
432.188
16407.4
6574.71
4397.7
4034.3
3989.17
3991.27
4001.85
15869.7
6000.65
3884.39
3575.83
3545.81
3551.96
3563.72
13511.2
5947.29
3251.93
1869.21
957.653
794.041
783.761
13496.8
5891.11
3232.93
1894.88
957.301
772.561
760.964
16514.9
6590.98
4351.07
3968.32
3919.59
3920.84
3932.74
15910.3
6054.13
3803.76
3463.26
3428.36
3433.08
3444.82
16050.4
6021.03
3887.3
3575.08
3542.5
3547.68
3559.39
13553
6013.47
3282.09
1808.71
965.162
840.602
833.171
13528.8
5968.43
3261.79
1838.15
959.003
816.202
807.646
14246.5
5968.55
2853.66
1641.94
1496.13
1489.64
1489.02
14144
6024.11
2920.66
1596.58
1419.38
1411.03
1410.28
16500.5
6602.59
4342.41
3950.71
3899.42
3899.6
3899.5
15893.2
6008.25
3833.99
3508.02
3474.2
3478.69
3481.21
16094.5
6050.1
3817.14
3481.21
3443.19
3446.76
3449.1
13292.3
5376.7
2925.68
1961.29
1372.86
710.07
427.553
13527.3
5402.18
2936.71
1963.23
1370.35
702.669
432.469
13264.5
5331.75
2925.27
1955.24
1373.9
721.017
425.395
13594.8
6112.5
3333.69
1711.36
1004.93
924.864
920.249
13588.9
6082.06
3319.94
1745.02
987.795
894.712
889.277
13449.9
5510.56
3091.82
2032.11
1126.25
621.034
567.117
13467.7
5495.79
3080.08
2028.34
1145.69
616.494
555.637
13432.5
5641.39
3154.17
2033.93
1051.62
654.139
619.381
14572.1
5737.18
2706.24
1868.48
1787.76
1785.6
1785.57
14452.6
5823.53
2738.89
1776.67
1678.85
1675.44
1675.07
13431.2
5461.76
3054.15
2017.94
1208.47
610.853
524.456
13428
5425.94
3032.96
2009.67
1223.82
608.773
514.655
13566.2
6039.46
3300.03
1777.28
974.683
866.568
860.277
13450.4
5473.82
3068.44
2023.42
1166.91
612.994
544.689
13397.3
5439.73
3036.1
2012.77
1246.05
613.349
506.087
13376.7
5374.98
2995.86
2002.51
1293.1
623.077
481.348
13411.4
5328.62
2949.38
1983.37
1338.2
651.5
454.641
13968
6147.35
3073
1553.88
1291.79
1276.65
1275.53
14337.1
5880.05
2784.62
1699.49
1581.32
1576.82
1576.36
14959.9
5717.15
2847.04
2277.54
2222.33
2221.93
2222.37
14818.4
5654.63
2750.84
2116.08
2055.7
2054.95
2055.17
13344.5
5454.75
2984.59
1983.46
1377.28
743.084
432.871
13522.7
5367.41
2944.29
1968.8
1366.03
706.919
428.521
15076.1
5844.48
3189.76
2701.54
2649.15
2649.17
2649.68
15452.3
6114.78
3486.74
2998.36
2941.27
2942.06
2944.4
15000
5714.04
2980.79
2468.09
2415
2415.23
2416.15
13469.3
5611.45
3056.77
2022.44
1394.54
708.07
433.669
16271
6503.31
4298.39
3930.57
3886.29
3888.72
3893.36
15855.2
5983.07
3809.89
3490.28
3458.96
3464.14
3463.06
15845.4
5983.45
3842
3529.99
3500.43
3506.65
3515.73
16267.3
6507.64
4321.11
3953.34
3909.4
3912.04
3916.28
13398.5
5302.91
2947.12
1981.91
1325.03
641.093
460.166
13376.4
5385.98
3006.52
2004.54
1277.66
617.82
488.992
13413.3
5285.37
2927.28
1972.14
1342.88
657.971
448.419
13389.4
5332.57
2972.53
1992.57
1303.41
626.876
473.6
13296.6
5744.22
3123.06
2046.09
1412.24
751.489
438.642
13269.6
5386.44
3014.25
2013.42
1288.97
641.662
506.805
13265.4
5433.02
2984.36
1985.32
1371.59
746.491
447.114
13333.5
6220.09
3379.07
1811.88
1086.71
989.603
984.063
13344.6
5754.57
3234.42
2028.02
1036.17
738.495
716.899
13344.5
6329.46
3406.33
1773.51
1144.36
1067.58
1063.11
13325.8
6267.32
3395.28
1792.1
1113.04
1027.06
1022.17
13269.1
5324.45
2943.05
1983.36
1367.13
706.405
457.113
13290.4
5535.5
3129.37
2058.61
1161
649.305
590.759
14163.2
6254.2
3082.15
1984.94
1788.28
1770.63
1769.23
13256
5594.34
3154.79
2061.85
1121.98
663.529
617.658
13275
5544.53
3134.75
2057.05
1138.34
654.046
603.639
13330.9
6015.76
3308.42
1908.68
1025.24
865.73
856.353
12953.8
5870.66
3204.1
2085.54
1430.63
801.714
464.143
13235.5
5355.12
2985.85
2009.15
1344.06
668.202
477.615
13493.2
6432.92
3320.48
1734.61
1311.94
1269.49
1266.87
13287.6
6137.38
3347.55
1861.88
1049.03
923.175
915.814
13296.9
6066.41
3325.55
1884.47
1033.76
893.033
884.983
12767.6
5958.2
3266.55
2115.75
1442.7
830.628
473.191
12121.9
5692.97
3215.16
2135.29
1464.42
924.259
546.369
12095.4
5625.98
3183.61
2114.4
1455.87
940.017
563.239
12135.8
6203.87
3488.72
2263.1
1532.32
965.718
568.863
12214.3
5552.12
3139.46
2088.56
1442.17
938.762
565.315
12111.2
6063.57
3390.72
2191.79
1490.28
957.507
571.877
12113.9
5632.79
3172.9
2104.21
1450.96