/*--------------------------------*- C++ -*----------------------------------*\
  =========                 |
  \\      /  F ield         | OpenFOAM: The Open Source CFD Toolbox
   \\    /   O peration     | Website:  https://openfoam.org
    \\  /    A nd           | Version:  12
     \\/     M anipulation  |
\*---------------------------------------------------------------------------*/
FoamFile
{
    format      ascii;
    class       volScalarField;
    location    "13000";
    object      p;
}
// * * * * * * * * * * * * * * * * * * * * * * * * * * * * * * * * * * * * * //

dimensions      [0 2 -2 0 0 0 0];

internalField   nonuniform List<scalar> 
24749
(
111.483
111.451
111.388
111.289
111.179
111.046
110.913
111.193
110.865
110.431
110.077
109.917
109.954
110.081
110.144
110.159
110.207
110.271
110.322
110.315
110.251
109.913
109.927
109.961
109.995
110.011
110.005
109.997
109.751
109.758
109.775
109.792
109.797
109.792
109.794
109.611
109.614
109.622
109.63
109.631
109.627
109.631
109.472
109.473
109.477
109.481
109.48
109.477
109.478
109.334
109.334
109.337
109.339
109.338
109.336
109.335
109.202
109.202
109.204
109.206
109.205
109.204
109.203
109.066
109.066
109.068
109.069
109.069
109.068
109.068
108.95
108.95
108.95
108.951
108.949
108.948
108.949
108.817
108.818
108.818
108.819
108.819
108.819
108.818
108.693
108.693
108.693
108.693
108.693
108.693
108.695
108.577
108.576
108.575
108.575
108.574
108.574
108.575
108.438
108.439
108.44
108.442
108.444
108.447
108.452
108.247
108.248
108.249
108.251
108.255
108.258
108.268
108.012
108.01
108.008
108.007
108.008
108.011
108.024
106.754
106.725
106.705
106.706
106.731
106.811
106.979
105.01
104.936
104.851
104.83
104.894
105.119
105.746
105.585
105.658
105.716
105.784
105.919
106.134
106.431
104.172
103.817
103.628
103.663
103.797
104.106
104.936
103.794
103.602
103.411
103.413
103.656
104.158
105.247
106.153
105.976
105.633
105.346
105.176
105.201
105.892
107.728
107.575
107.319
107.06
106.853
106.73
106.877
104.204
104.471
104.825
105.192
105.539
105.896
106.396
109.047
108.953
108.774
108.569
108.344
108.146
107.943
106.317
106.475
106.679
106.881
107.059
107.211
107.258
109.85
109.83
109.704
109.527
109.313
109.047
108.648
107.795
107.887
108.022
108.143
108.218
108.222
108.066
110.286
110.275
110.191
110.068
109.853
109.589
109.152
108.597
108.651
108.757
108.845
108.883
108.854
108.661
110.448
110.444
110.356
110.228
110.069
109.831
109.511
108.973
109.033
109.115
109.185
109.204
109.149
108.867
110.372
110.361
110.265
110.121
109.947
109.658
109.304
108.968
109.029
109.122
109.2
109.231
109.185
109.002
109.926
109.904
109.776
109.603
109.398
109.167
108.824
108.644
108.71
108.822
108.924
108.972
108.973
108.844
109.145
109.049
108.872
108.661
108.438
108.215
108.023
107.755
107.854
108.013
108.166
108.289
108.364
108.345
107.869
107.745
107.546
107.351
107.184
107.073
107.181
106.585
106.736
106.919
107.104
107.267
107.384
107.416
106.013
105.821
105.574
105.413
105.399
105.511
105.948
104.362
104.553
104.787
105.036
105.296
105.604
106.243
105.582
105.737
105.954
106.198
106.424
106.634
106.939
101.139
101.744
102.394
103.089
103.786
104.632
105.694
111.5
111.469
111.406
111.307
111.194
111.058
110.924
111.215
110.885
110.449
110.089
109.92
109.955
110.08
109.829
109.917
110.069
110.239
110.42
110.551
110.616
111.503
111.436
111.374
111.276
111.104
110.885
110.704
110.138
110.154
110.206
110.273
110.324
110.308
110.253
110.626
110.586
110.49
110.37
110.255
110.156
110.163
110.027
110.039
110.079
110.127
110.158
110.148
110.125
110.394
110.374
110.324
110.264
110.22
110.203
110.228
109.907
109.92
109.953
109.987
110.004
110
109.994
110.158
110.144
110.109
110.062
110.031
110.021
110.024
109.824
109.834
109.857
109.879
109.888
109.884
109.881
110
109.991
109.966
109.936
109.922
109.919
109.918
109.751
109.757
109.774
109.788
109.792
109.788
109.791
109.867
109.862
109.845
109.826
109.82
109.823
109.817
109.679
109.683
109.694
109.705
109.707
109.702
109.705
109.769
109.766
109.754
109.741
109.739
109.741
109.74
109.608
109.61
109.618
109.626
109.627
109.624
109.626
109.678
109.676
109.668
109.657
109.656
109.659
109.658
109.536
109.538
109.544
109.55
109.55
109.547
109.549
109.597
109.596
109.59
109.582
109.582
109.584
109.58
109.466
109.467
109.471
109.477
109.477
109.476
109.478
109.52
109.519
109.515
109.509
109.509
109.511
109.506
109.397
109.398
109.401
109.405
109.405
109.403
109.407
109.444
109.444
109.442
109.437
109.437
109.439
109.44
109.329
109.33
109.332
109.336
109.335
109.334
109.333
109.372
109.371
109.37
109.366
109.366
109.365
109.362
109.263
109.263
109.265
109.268
109.269
109.27
109.273
109.304
109.304
109.303
109.301
109.301
109.302
109.297
109.195
109.196
109.197
109.2
109.2
109.2
109.201
109.235
109.235
109.234
109.232
109.232
109.233
109.23
109.131
109.131
109.133
109.135
109.136
109.137
109.141
109.167
109.168
109.167
109.166
109.166
109.167
109.165
109.066
109.066
109.067
109.069
109.069
109.069
109.07
109.101
109.102
109.102
109.101
109.101
109.102
109.1
109.003
109.003
109.004
109.006
109.006
109.007
109.008
109.036
109.036
109.036
109.036
109.036
109.036
109.034
108.943
108.943
108.943
108.944
108.944
108.944
108.946
108.972
108.973
108.973
108.974
108.974
108.975
108.976
108.883
108.883
108.882
108.883
108.882
108.881
108.882
108.905
108.906
108.907
108.907
108.908
108.909
108.91
108.821
108.82
108.82
108.82
108.819
108.818
108.817
108.845
108.845
108.846
108.846
108.847
108.847
108.847
108.754
108.754
108.754
108.755
108.755
108.755
108.755
108.788
108.787
108.787
108.787
108.786
108.785
108.783
108.686
108.687
108.688
108.69
108.691
108.692
108.691
108.729
108.729
108.728
108.727
108.726
108.725
108.724
108.622
108.624
108.625
108.627
108.63
108.631
108.632
108.666
108.665
108.664
108.663
108.662
108.66
108.658
108.563
108.564
108.565
108.566
108.568
108.568
108.568
108.599
108.599
108.598
108.598
108.598
108.597
108.596
108.504
108.504
108.505
108.505
108.506
108.506
108.508
108.531
108.531
108.532
108.532
108.533
108.533
108.53
108.442
108.442
108.442
108.442
108.445
108.449
108.459
108.468
108.469
108.469
108.471
108.473
108.474
108.476
108.353
108.352
108.352
108.353
108.356
108.357
108.364
108.398
108.398
108.399
108.4
108.403
108.406
108.414
108.24
108.239
108.238
108.238
108.242
108.247
108.256
108.287
108.289
108.292
108.295
108.299
108.305
108.311
108.146
108.138
108.13
108.122
108.118
108.116
108.121
108.121
108.127
108.136
108.145
108.157
108.166
108.176
108.037
108.024
108.008
107.994
107.987
107.988
108.007
107.962
107.974
107.99
108.008
108.028
108.046
108.062
107.854
107.836
107.81
107.783
107.76
107.746
107.776
107.817
107.825
107.838
107.848
107.862
107.882
107.925
106.678
106.717
106.768
106.821
106.877
106.956
107.091
107.965
107.628
107.271
106.963
106.731
106.63
106.734
107.903
107.842
107.78
107.705
107.633
107.577
107.582
110.346
110.531
110.668
110.778
110.858
110.877
110.849
110.202
110.398
110.525
110.631
110.71
110.747
110.747
110.094
110.305
110.448
110.57
110.662
110.712
110.724
110.142
110.342
110.478
110.592
110.679
110.723
110.731
110.221
110.412
110.537
110.641
110.719
110.754
110.754
110.332
110.519
110.657
110.77
110.852
110.874
110.852
111.457
111.394
111.338
111.248
111.084
110.875
110.695
109.875
109.956
110.1
110.259
110.429
110.55
110.622
110.627
110.587
110.492
110.374
110.258
110.159
110.138
110.037
110.05
110.093
110.142
110.169
110.16
110.135
109.83
109.841
109.865
109.888
109.897
109.889
109.887
109.68
109.685
109.697
109.709
109.711
109.705
109.705
109.539
109.54
109.546
109.552
109.551
109.548
109.55
109.404
109.405
109.407
109.411
109.41
109.408
109.412
109.27
109.271
109.272
109.275
109.274
109.273
109.274
109.132
109.133
109.135
109.138
109.138
109.139
109.143
109.008
109.008
109.009
109.01
109.009
109.009
109.007
108.883
108.883
108.883
108.884
108.884
108.884
108.886
108.752
108.753
108.753
108.754
108.755
108.756
108.756
108.637
108.636
108.635
108.634
108.633
108.632
108.633
108.51
108.51
108.51
108.51
108.51
108.51
108.51
108.347
108.349
108.35
108.352
108.355
108.355
108.355
108.145
108.143
108.141
108.138
108.136
108.134
108.135
107.553
107.554
107.562
107.58
107.612
107.665
107.758
112.267
111.891
111.581
111.351
111.122
110.938
110.816
112.498
112.154
111.795
111.449
111.151
110.926
110.793
110.281
110.451
110.565
110.66
110.733
110.769
110.769
112.478
112.108
111.738
111.396
111.102
110.886
110.761
110.107
110.317
110.461
110.582
110.675
110.722
110.732
112.477
112.124
111.768
111.433
111.138
110.912
110.767
112.491
112.113
111.732
111.385
111.089
110.875
110.75
110.135
110.341
110.475
110.588
110.674
110.718
110.726
110.165
110.363
110.498
110.611
110.696
110.737
110.742
110.271
110.443
110.56
110.657
110.732
110.77
110.77
112.223
111.852
111.547
111.323
111.101
110.924
110.797
110.388
110.368
110.319
110.259
110.215
110.21
110.228
110.013
110.003
109.976
109.947
109.933
109.935
109.936
109.775
109.771
109.758
109.744
109.741
109.744
109.745
109.599
109.597
109.592
109.584
109.585
109.586
109.582
109.445
109.445
109.443
109.439
109.44
109.442
109.44
109.305
109.305
109.305
109.303
109.304
109.305
109.305
109.176
109.175
109.174
109.173
109.173
109.173
109.171
109.034
109.035
109.035
109.035
109.037
109.038
109.035
108.918
108.918
108.918
108.918
108.918
108.917
108.916
108.785
108.785
108.785
108.786
108.786
108.787
108.786
108.652
108.653
108.654
108.656
108.658
108.659
108.66
108.545
108.545
108.545
108.545
108.545
108.543
108.539
108.407
108.406
108.405
108.405
108.405
108.406
108.409
108.184
108.185
108.187
108.19
108.193
108.196
108.201
107.917
107.908
107.901
107.893
107.892
107.898
107.922
112.46
112.091
111.72
111.377
111.086
110.875
110.752
109.68
109.678
109.669
109.659
109.658
109.66
109.661
109.517
109.517
109.513
109.508
109.509
109.512
109.509
109.376
109.376
109.375
109.372
109.373
109.374
109.373
109.242
109.242
109.241
109.239
109.24
109.24
109.239
109.104
109.104
109.104
109.104
109.105
109.105
109.105
108.976
108.976
108.976
108.976
108.978
108.98
108.98
108.852
108.852
108.852
108.852
108.852
108.852
108.848
108.715
108.716
108.716
108.718
108.719
108.72
108.717
108.599
108.599
108.6
108.601
108.602
108.602
108.602
108.483
108.483
108.482
108.481
108.481
108.481
108.483
108.304
108.304
108.304
108.305
108.307
108.311
108.315
108.087
108.085
108.084
108.083
108.083
108.082
108.086
107.027
107.057
107.093
107.14
107.208
107.298
107.439
109.885
109.879
109.859
109.839
109.83
109.831
109.829
110.167
110.151
110.114
110.068
110.037
110.029
110.028
112.497
112.15
111.788
111.443
111.144
110.922
110.786
112.453
112.095
111.734
111.4
111.111
110.896
110.766
112.438
112.077
111.714
111.376
111.089
110.878
110.753
112.442
112.082
111.719
111.383
111.096
110.885
110.76
112.483
112.129
111.773
111.441
111.147
110.921
110.78
110.71
110.624
110.492
110.363
110.266
110.212
110.27
109.022
109.319
109.637
109.913
110.162
110.344
110.46
109.73
109.729
109.726
109.723
109.728
109.738
109.748
110.031
110.03
110.016
110.007
110.005
110.014
110.025
109.588
109.586
109.583
109.578
109.58
109.584
109.585
109.441
109.44
109.438
109.435
109.436
109.439
109.439
109.298
109.298
109.297
109.297
109.297
109.3
109.301
109.161
109.162
109.163
109.165
109.167
109.169
109.171
109.029
109.03
109.031
109.032
109.033
109.035
109.033
108.924
108.922
108.92
108.919
108.917
108.916
108.916
108.77
108.771
108.773
108.776
108.779
108.783
108.787
108.677
108.674
108.671
108.667
108.664
108.662
108.663
108.554
108.551
108.549
108.547
108.545
108.543
108.542
108.377
108.381
108.386
108.392
108.399
108.404
108.408
108.203
108.202
108.201
108.201
108.204
108.208
108.213
107.936
107.936
107.934
107.932
107.932
107.941
107.951
109.15
109.505
109.854
110.156
110.389
110.537
110.599
109.816
109.816
109.81
109.807
109.812
109.823
109.828
109.765
109.767
109.775
109.782
109.784
109.784
109.777
106.094
107.143
108.003
108.75
109.345
109.831
110.163
107.153
106.998
106.8
106.614
106.491
106.502
106.762
109.031
109.415
109.791
110.112
110.36
110.519
110.587
111.824
111.541
111.218
110.935
110.733
110.623
110.591
109.66
109.658
109.654
109.649
109.65
109.656
109.662
109.612
109.614
109.62
109.626
109.626
109.625
109.621
108.649
108.518
108.311
108.086
107.879
107.715
107.547
109.208
109.125
108.957
108.773
108.58
108.369
108.17
107.159
107.295
107.458
107.615
107.749
107.845
107.872
109.588
109.526
109.384
109.213
109.023
108.828
108.495
107.724
107.838
107.98
108.119
108.234
108.263
108.23
109.759
109.707
109.578
109.418
109.237
109.036
108.646
108.012
108.108
108.24
108.373
108.478
108.533
108.463
109.749
109.694
109.552
109.4
109.221
108.985
108.719
108.151
108.251
108.376
108.497
108.585
108.61
108.519
109.569
109.503
109.373
109.205
109.026
108.856
108.523
107.936
108.036
108.171
108.31
108.429
108.503
108.472
109.383
109.293
109.101
108.881
108.662
108.447
108.245
107.743
107.861
108.021
108.153
108.247
108.264
108.215
108.809
108.68
108.461
108.236
108.012
107.838
107.716
106.923
107.09
107.307
107.533
107.73
107.86
107.918
108.951
109.333
109.707
110.032
110.291
110.461
110.535
112.036
111.711
111.358
111.025
110.759
110.591
110.531
110.22
110.445
110.65
110.773
110.788
110.727
110.617
110.596
110.531
110.425
110.313
110.23
110.193
110.244
109.772
109.814
109.844
109.916
110.054
110.223
110.386
110.3
110.275
110.235
110.197
110.179
110.197
110.248
110.132
110.158
110.208
110.283
110.343
110.366
110.342
110.013
110.009
109.995
109.987
109.988
110.003
110.026
110.046
110.053
110.073
110.101
110.117
110.118
110.114
109.885
109.887
109.881
109.879
109.885
109.899
109.906
109.94
109.944
109.956
109.97
109.976
109.978
109.972
109.815
109.814
109.806
109.801
109.804
109.814
109.821
109.828
109.833
109.843
109.853
109.856
109.859
109.856
109.748
109.744
109.737
109.729
109.73
109.736
109.741
109.745
109.75
109.76
109.771
109.775
109.775
109.78
109.66
109.657
109.652
109.646
109.647
109.652
109.654
109.672
109.675
109.683
109.691
109.694
109.694
109.691
109.581
109.579
109.575
109.571
109.573
109.577
109.579
109.596
109.599
109.605
109.612
109.614
109.615
109.615
109.507
109.506
109.504
109.501
109.502
109.504
109.507
109.526
109.528
109.533
109.537
109.539
109.539
109.542
109.431
109.43
109.429
109.427
109.429
109.432
109.436
109.461
109.462
109.466
109.469
109.469
109.469
109.465
109.361
109.36
109.359
109.357
109.357
109.358
109.356
109.387
109.388
109.391
109.394
109.395
109.395
109.393
109.296
109.296
109.295
109.294
109.294
109.296
109.298
109.321
109.322
109.323
109.326
109.326
109.325
109.321
109.223
109.223
109.224
109.224
109.225
109.228
109.231
109.262
109.262
109.263
109.264
109.264
109.263
109.258
109.155
109.156
109.156
109.156
109.156
109.156
109.154
109.191
109.191
109.192
109.194
109.193
109.193
109.193
109.096
109.096
109.096
109.096
109.096
109.098
109.101
109.123
109.124
109.124
109.125
109.125
109.125
109.122
109.031
109.031
109.031
109.031
109.03
109.03
109.033
109.064
109.064
109.065
109.066
109.066
109.066
109.066
108.968
108.968
108.967
108.967
108.967
108.969
108.973
108.996
108.996
108.997
108.999
109
109
108.999
108.91
108.909
108.908
108.906
108.904
108.904
108.906
108.924
108.925
108.926
108.929
108.931
108.932
108.931
108.857
108.856
108.853
108.85
108.847
108.846
108.848
108.859
108.861
108.863
108.867
108.87
108.872
108.87
108.793
108.792
108.79
108.788
108.786
108.783
108.78
108.809
108.81
108.811
108.814
108.815
108.815
108.816
108.71
108.711
108.713
108.716
108.719
108.723
108.728
108.764
108.763
108.762
108.761
108.76
108.757
108.752
108.629
108.633
108.637
108.642
108.647
108.651
108.652
108.707
108.704
108.701
108.697
108.695
108.691
108.687
108.569
108.572
108.576
108.581
108.585
108.588
108.589
108.635
108.633
108.629
108.626
108.624
108.622
108.622
108.522
108.524
108.525
108.526
108.528
108.529
108.53
108.561
108.56
108.558
108.557
108.556
108.554
108.549
108.478
108.477
108.476
108.475
108.475
108.474
108.476
108.495
108.495
108.496
108.497
108.498
108.5
108.502
108.417
108.415
108.413
108.411
108.41
108.41
108.414
108.433
108.434
108.436
108.437
108.44
108.444
108.449
108.325
108.324
108.322
108.32
108.32
108.322
108.33
108.361
108.361
108.361
108.362
108.364
108.366
108.369
108.207
108.196
108.186
108.179
108.178
108.172
108.177
108.223
108.228
108.234
108.243
108.254
108.266
108.286
108.263
108.229
108.189
108.151
108.114
108.087
108.077
107.887
107.914
107.948
107.983
108.021
108.059
108.079
108.16
108.112
108.059
108.009
107.968
107.949
107.971
107.699
107.75
107.809
107.866
107.921
107.968
108.006
108.95
109.344
109.73
110.06
110.319
110.489
110.565
111.876
111.578
111.237
110.942
110.728
110.61
110.573
109.003
109.371
109.732
110.047
110.297
110.463
110.532
111.865
111.565
111.219
110.919
110.697
110.575
110.54
109.163
109.51
109.854
110.151
110.382
110.529
110.591
109.199
109.541
109.879
110.171
110.397
110.54
110.599
111.797
111.525
111.211
110.937
110.739
110.628
110.596
111.791
111.522
111.214
110.939
110.741
110.628
110.594
109.026
109.399
109.767
110.082
110.331
110.495
110.569
111.893
111.593
111.244
110.943
110.716
110.587
110.55
106.119
107.176
108.036
108.778
109.363
109.835
110.163
108.124
107.909
107.567
107.241
106.985
106.873
106.975
106.206
106.389
106.612
106.833
107.046
107.235
107.372
105.081
105.366
105.703
106.04
106.38
106.704
106.973
110.274
110.245
110.201
110.166
110.156
110.185
110.22
110.142
110.171
110.225
110.301
110.357
110.368
110.322
110.028
110.036
110.061
110.093
110.115
110.129
110.143
109.917
109.918
109.91
109.907
109.912
109.933
109.949
109.867
109.87
109.88
109.89
109.894
109.896
109.897
112.4
112.082
111.611
111.216
110.87
110.609
110.463
112.408
112.085
111.613
111.216
110.867
110.609
110.494
109.271
109.272
109.273
109.274
109.273
109.271
109.269
109.234
109.234
109.234
109.234
109.235
109.238
109.241
109.967
109.971
109.984
109.999
110.005
110.008
109.999
109.215
109.215
109.214
109.214
109.211
109.207
109.204
109.508
109.507
109.505
109.502
109.504
109.508
109.509
109.373
109.372
109.371
109.368
109.368
109.37
109.372
109.539
109.541
109.546
109.55
109.549
109.548
109.54
109.087
109.089
109.092
109.095
109.099
109.101
109.107
108.987
108.985
108.984
108.982
108.979
108.98
108.981
108.842
108.843
108.844
108.845
108.847
108.849
108.851
108.719
108.718
108.718
108.718
108.718
108.717
108.716
108.628
108.624
108.619
108.614
108.61
108.607
108.607
108.465
108.467
108.469
108.472
108.476
108.479
108.482
108.288
108.292
108.297
108.302
108.308
108.313
108.322
108.164
108.156
108.144
108.132
108.12
108.111
108.107
109.679
109.682
109.689
109.696
109.698
109.697
109.686
107.154
107.167
107.191
107.23
107.288
107.369
107.513
109.06
109.345
109.653
109.921
110.162
110.333
110.433
109.645
109.706
109.763
109.861
110.023
110.216
110.391
105.953
106.178
106.434
106.692
106.949
107.202
107.421
107.873
107.763
107.582
107.375
107.207
107.129
107.224
110.291
110.5
110.688
110.795
110.801
110.728
110.614
111.835
111.558
111.235
110.947
110.737
110.615
110.578
105.883
106.005
106.154
106.333
106.549
106.795
107.036
107.782
107.754
107.713
107.676
107.652
107.641
107.681
108.695
108.461
108.207
107.964
107.749
107.605
107.561
107.565
107.635
107.703
107.76
107.807
107.833
107.879
109.151
109.15
109.148
109.148
109.146
109.144
109.147
111.987
111.676
111.338
111.003
110.742
110.579
110.511
107.963
107.916
107.875
107.823
107.786
107.766
107.795
108.085
108.08
108.077
108.072
108.066
108.061
108.063
108.259
108.259
108.259
108.259
108.262
108.268
108.276
108.468
108.465
108.461
108.456
108.453
108.45
108.45
108.57
108.572
108.574
108.576
108.578
108.577
108.575
108.672
108.674
108.677
108.68
108.683
108.684
108.684
108.089
108.1
108.112
108.126
108.139
108.152
108.157
108.38
108.377
108.373
108.369
108.367
108.366
108.367
108.524
108.523
108.523
108.522
108.52
108.517
108.515
108.613
108.616
108.621
108.625
108.63
108.633
108.635
108.745
108.745
108.745
108.746
108.747
108.748
108.749
108.893
108.892
108.892
108.892
108.89
108.888
108.887
108.995
108.997
108.997
109
109.001
109.001
108.997
108.945
108.947
108.948
108.95
108.951
108.951
108.952
108.822
108.821
108.82
108.82
108.819
108.817
108.815
109.336
109.337
109.339
109.341
109.34
109.337
109.333
109.466
109.468
109.471
109.475
109.475
109.474
109.47
109.402
109.403
109.405
109.409
109.409
109.408
109.407
109.069
109.069
109.069
109.07
109.07
109.069
109.068
109.037
109.041
109.046
109.053
109.06
109.067
109.076
109.106
109.109
109.114
109.122
109.129
109.134
109.137
109.114
109.111
109.108
109.105
109.101
109.103
109.109
109.413
109.413
109.412
109.412
109.41
109.409
109.408
109.472
109.473
109.473
109.473
109.472
109.471
109.469
109.435
109.436
109.437
109.437
109.435
109.435
109.434
109.539
109.539
109.539
109.541
109.542
109.544
109.542
109.498
109.499
109.501
109.501
109.501
109.505
109.51
109.96
109.972
109.987
109.999
109.999
109.985
109.976
108.982
108.977
108.971
108.964
108.957
108.954
108.952
108.789
108.793
108.798
108.803
108.808
108.811
108.813
109.016
109.015
109.013
109.011
109.006
109.001
108.993
109.014
109.015
109.016
109.019
109.023
109.03
109.035
108.954
108.958
108.961
108.967
108.97
108.973
108.971
108.881
108.88
108.879
108.879
108.881
108.883
108.884
108.864
108.861
108.859
108.857
108.855
108.855
108.857
108.17
108.16
108.152
108.15
108.151
108.158
108.157
108.703
108.7
108.697
108.693
108.689
108.686
108.683
108.622
108.615
108.607
108.598
108.589
108.581
108.577
108.406
108.413
108.422
108.431
108.439
108.444
108.447
108.249
108.255
108.262
108.271
108.279
108.287
108.296
108.207
108.207
108.207
108.209
108.217
108.233
108.246
109.683
109.687
109.692
109.697
109.698
109.697
109.687
107.605
107.616
107.649
107.7
107.765
107.839
107.875
108.576
108.456
108.304
108.147
108.001
107.899
107.86
110.597
110.526
110.405
110.308
110.273
110.299
110.371
108.756
109.087
109.43
109.767
110.044
110.248
110.366
108.955
108.847
108.679
108.497
108.316
108.155
108.016
109.256
109.578
109.885
110.143
110.33
110.431
110.466
109.636
109.636
109.634
109.634
109.63
109.628
109.622
109.597
109.598
109.597
109.595
109.591
109.591
109.591
109.154
109.068
108.917
108.749
108.579
108.418
108.306
107.46
107.586
107.732
107.871
107.993
108.07
108.122
109.326
109.243
109.089
108.919
108.72
108.559
108.386
107.449
107.571
107.729
107.894
108.046
108.18
108.233
109.351
109.279
109.135
108.979
108.823
108.663
108.508
107.573
107.702
107.86
108.025
108.172
108.273
108.318
109.539
109.444
109.288
109.105
108.911
108.712
108.519
107.784
107.916
108.065
108.212
108.327
108.379
108.379
109.179
109.095
108.948
108.783
108.641
108.52
108.397
107.809
107.898
108.036
108.171
108.284
108.368
108.331
109.07
108.912
108.678
108.429
108.201
108.038
107.995
106.827
106.973
107.166
107.365
107.564
107.747
107.897
107.106
107.251
107.459
107.668
107.884
108.069
108.22
108.416
108.837
109.261
109.661
109.993
110.229
110.384
110.79
110.688
110.521
110.372
110.306
110.314
110.37
109.223
109.54
109.846
110.108
110.301
110.407
110.45
110.421
110.402
110.395
110.393
110.392
110.369
110.321
110.455
110.478
110.501
110.503
110.471
110.411
110.349
110.006
110.027
110.064
110.093
110.108
110.1
110.089
110.267
110.255
110.237
110.21
110.195
110.192
110.214
109.851
109.878
109.909
109.942
109.958
109.957
109.948
110.122
110.106
110.077
110.045
110.03
110.021
110.015
109.826
109.835
109.846
109.856
109.856
109.849
109.847
109.927
109.921
109.905
109.89
109.885
109.886
109.887
109.807
109.805
109.801
109.796
109.787
109.773
109.766
109.791
109.793
109.792
109.792
109.797
109.804
109.811
109.712
109.709
109.704
109.7
109.695
109.688
109.687
109.72
109.723
109.725
109.726
109.729
109.733
109.729
109.62
109.62
109.619
109.618
109.615
109.61
109.613
109.629
109.631
109.634
109.637
109.642
109.649
109.656
109.548
109.547
109.546
109.544
109.54
109.536
109.534
109.558
109.56
109.562
109.563
109.565
109.567
109.566
109.461
109.461
109.461
109.461
109.461
109.46
109.46
109.502
109.502
109.502
109.502
109.502
109.502
109.499
109.389
109.39
109.391
109.391
109.391
109.391
109.392
109.415
109.416
109.417
109.418
109.42
109.423
109.423
109.329
109.329
109.329
109.328
109.325
109.324
109.32
109.349
109.349
109.35
109.351
109.351
109.352
109.349
109.249
109.249
109.25
109.252
109.252
109.254
109.254
109.3
109.3
109.299
109.298
109.296
109.294
109.292
109.176
109.177
109.18
109.183
109.185
109.187
109.188
109.222
109.221
109.221
109.22
109.219
109.221
109.221
109.117
109.119
109.12
109.121
109.121
109.122
109.121
109.154
109.154
109.154
109.153
109.151
109.15
109.149
109.067
109.066
109.066
109.065
109.064
109.063
109.062
109.094
109.094
109.094
109.095
109.094
109.095
109.095
108.99
108.99
108.991
108.992
108.993
108.995
108.997
109.032
109.032
109.031
109.032
109.03
109.029
109.027
108.924
108.925
108.925
108.925
108.924
108.924
108.921
108.953
108.953
108.954
108.956
108.957
108.96
108.965
108.889
108.886
108.882
108.877
108.871
108.868
108.866
108.861
108.864
108.868
108.873
108.879
108.884
108.885
108.846
108.842
108.836
108.829
108.821
108.816
108.815
108.809
108.813
108.818
108.824
108.83
108.834
108.833
108.745
108.745
108.746
108.747
108.748
108.75
108.752
108.792
108.793
108.795
108.795
108.794
108.791
108.787
108.645
108.651
108.659
108.667
108.675
108.68
108.683
108.748
108.744
108.738
108.733
108.729
108.726
108.725
108.563
108.571
108.581
108.592
108.603
108.611
108.616
108.691
108.684
108.676
108.667
108.659
108.652
108.647
108.524
108.528
108.533
108.539
108.544
108.547
108.547
108.604
108.6
108.593
108.588
108.584
108.581
108.579
108.501
108.5
108.5
108.499
108.498
108.497
108.498
108.515
108.515
108.514
108.514
108.515
108.517
108.515
108.468
108.465
108.461
108.457
108.453
108.45
108.451
108.452
108.454
108.457
108.461
108.465
108.468
108.469
108.403
108.4
108.395
108.39
108.386
108.382
108.382
108.414
108.415
108.418
108.42
108.421
108.42
108.413
108.258
108.258
108.261
108.266
108.272
108.276
108.288
108.376
108.368
108.36
108.355
108.352
108.355
108.365
108.303
108.283
108.252
108.218
108.183
108.145
108.11
108.079
108.094
108.113
108.132
108.153
108.169
108.174
109.013
109.397
109.756
110.057
110.276
110.4
110.443
111.623
111.386
111.085
110.822
110.633
110.52
110.47
109.205
109.206
109.208
109.209
109.21
109.209
109.208
109.211
109.207
109.202
109.196
109.189
109.185
109.18
108.852
109.236
109.602
109.93
110.173
110.32
110.39
111.333
111.151
110.897
110.667
110.5
110.405
110.37
111.622
111.369
111.056
110.797
110.602
110.492
110.444
109.265
109.266
109.266
109.268
109.268
109.268
109.268
109.246
109.245
109.245
109.244
109.241
109.24
109.237
109.752
109.758
109.768
109.776
109.779
109.775
109.771
109.756
109.755
109.749
109.742
109.738
109.737
109.73
108.833
109.222
109.596
109.927
110.177
110.331
110.411
111.639
111.403
111.101
110.83
110.628
110.506
110.452
111.555
111.322
111.015
110.766
110.568
110.45
110.411
108.364
108.334
108.284
108.226
108.162
108.111
108.081
107.801
107.85
107.904
107.966
108.022
108.077
108.123
108.309
108.288
108.269
108.229
108.179
108.103
108.025
109.384
109.384
109.384
109.382
109.38
109.38
109.383
109.325
109.325
109.326
109.328
109.331
109.332
109.335
108.791
108.789
108.786
108.784
108.782
108.781
108.781
108.728
108.731
108.734
108.739
108.742
108.744
108.746
108.924
108.925
108.927
108.928
108.927
108.928
108.928
109.989
109.982
109.969
109.955
109.947
109.942
109.945
109.87
109.877
109.885
109.893
109.894
109.887
109.891
108.613
108.619
108.627
108.636
108.645
108.654
108.66
108.682
108.674
108.665
108.654
108.644
108.637
108.633
109.291
109.292
109.293
109.294
109.293
109.295
109.299
108.696
108.697
108.699
108.702
108.706
108.711
108.713
108.568
108.575
108.583
108.592
108.599
108.604
108.606
108.505
108.505
108.505
108.507
108.509
108.51
108.51
108.32
108.329
108.341
108.352
108.362
108.37
108.376
109.659
109.66
109.658
109.657
109.656
109.659
109.657
109.871
109.868
109.858
109.847
109.84
109.834
109.831
109.975
110.009
110.061
110.096
110.117
110.117
110.117
110.107
110.099
110.079
110.058
110.053
110.048
110.053
108.414
108.32
108.202
108.094
107.998
107.932
107.921
108.459
108.382
108.283
108.193
108.116
108.06
108.035
110.488
110.446
110.417
110.398
110.386
110.353
110.294
110.361
110.414
110.465
110.488
110.468
110.4
110.337
110.308
110.292
110.273
110.239
110.218
110.215
110.2
107.629
107.697
107.772
107.843
107.911
107.974
108.015
109.337
109.634
109.922
110.165
110.341
110.435
110.467
111.618
111.394
111.109
110.853
110.658
110.532
110.468
111.597
111.372
111.09
110.841
110.653
110.538
110.485
109.343
109.643
109.931
110.178
110.353
110.445
110.476
108.468
108.46
108.45
108.44
108.432
108.425
108.421
108.56
108.56
108.562
108.562
108.561
108.557
108.554
108.377
108.371
108.362
108.354
108.349
108.347
108.349
108.513
108.508
108.502
108.496
108.492
108.488
108.487
107.387
107.481
107.593
107.702
107.802
107.893
107.96
108.706
108.691
108.672
108.649
108.629
108.614
108.605
108.908
108.797
108.64
108.475
108.305
108.155
108.064
109.449
109.449
109.448
109.445
109.44
109.433
109.428
109.023
109.034
109.049
109.067
109.084
109.096
109.099
109.464
109.469
109.477
109.488
109.498
109.503
109.508
109.439
109.441
109.444
109.447
109.454
109.462
109.473
108.286
108.3
108.317
108.333
108.346
108.355
108.358
108.792
108.8
108.811
108.823
108.837
108.847
108.854
109.863
109.864
109.87
109.889
109.911
109.935
109.95
108.982
108.972
108.959
108.944
108.93
108.92
108.915
108.936
108.932
108.93
108.923
108.914
108.903
108.894
109.259
109.263
109.27
109.279
109.288
109.29
109.29
107.354
107.465
107.611
107.765
107.907
108.02
108.074
108.412
108.422
108.437
108.452
108.467
108.479
108.485
109.674
109.673
109.67
109.668
109.665
109.658
109.646
109.403
109.399
109.393
109.386
109.379
109.374
109.377
109.361
109.359
109.357
109.353
109.349
109.345
109.347
107.279
107.402
107.553
107.697
107.823
107.917
107.954
109.402
109.29
109.113
108.919
108.724
108.528
108.347
109.346
109.25
109.076
108.89
108.702
108.522
108.38
107.36
107.543
107.748
107.957
108.14
108.256
108.286
109.149
109.06
108.893
108.72
108.543
108.393
108.306
107.275
107.418
107.598
107.797
107.991
108.141