/*--------------------------------*- C++ -*----------------------------------*\
  =========                 |
  \\      /  F ield         | OpenFOAM: The Open Source CFD Toolbox
   \\    /   O peration     | Website:  https://openfoam.org
    \\  /    A nd           | Version:  12
     \\/     M anipulation  |
\*---------------------------------------------------------------------------*/
FoamFile
{
    format      ascii;
    class       surfaceScalarField;
    location    "13000";
    object      phi;
}
// * * * * * * * * * * * * * * * * * * * * * * * * * * * * * * * * * * * * * //

dimensions      [0 3 -1 0 0 0 0];

internalField   nonuniform List<scalar> 
55962
(
3.2535e-07
-3.82862e-09
6.19222e-06
3.71173e-07
-3.20091e-09
8.14422e-06
4.32293e-07
-7.05539e-09
1.01141e-05
3.41087e-07
-6.51623e-09
1.25141e-05
2.9883e-07
-8.55391e-09
1.48361e-05
2.16937e-07
-1.00446e-08
1.70214e-05
-1.10061e-08
1.82664e-05
9.72549e-08
-6.06954e-07
-9.97682e-09
4.94495e-06
-4.32802e-06
-9.40136e-07
-8.29624e-09
6.88682e-06
-6.54534e-06
-1.15855e-06
-6.10146e-09
8.72846e-06
-8.50394e-06
-1.21593e-06
-1.07126e-09
1.06593e-05
-1.06009e-05
-1.06214e-06
-2.89935e-09
1.27262e-05
-1.28771e-05
-7.72286e-07
-5.14185e-09
1.46268e-05
-1.49116e-05
1.14449e-08
1.56335e-05
-1.5991e-05
-4.26227e-07
-1.7376e-07
4.13164e-09
-4.44078e-06
4.61041e-06
-3.99333e-07
4.84781e-10
-6.74298e-06
6.96807e-06
-4.15009e-07
8.10283e-09
-9.02182e-06
9.02939e-06
-3.49122e-07
1.33321e-08
-1.11851e-05
1.11059e-05
-2.28636e-07
1.80668e-08
-1.34507e-05
1.33122e-05
-1.60647e-07
1.37826e-08
-1.5448e-05
1.53662e-05
-1.7715e-08
-1.65121e-05
1.64722e-05
-1.03053e-07
-5.04688e-08
4.39624e-09
4.30429e-06
-4.25822e-06
-1.57532e-07
1.33085e-08
6.79227e-06
-6.69851e-06
-1.42116e-07
6.99586e-09
9.06861e-06
-9.09102e-06
-9.72187e-08
1.82713e-08
1.12685e-05
-1.13317e-05
-6.63508e-08
-2.69286e-09
1.35413e-05
-1.35694e-05
-7.9437e-08
-7.26425e-09
1.56099e-05
-1.55895e-05
-4.89923e-08
1.66943e-05
-1.67133e-05
-1.13859e-08
-1.50314e-08
1.08454e-08
4.1362e-06
-4.13201e-06
-5.40981e-08
1.20805e-08
6.66428e-06
-6.6373e-06
-3.46208e-08
1.35209e-08
9.11728e-06
-9.15028e-06
-7.22254e-09
1.79916e-08
1.14778e-05
-1.15232e-05
-1.11087e-08
3.725e-09
1.38102e-05
-1.38101e-05
-4.38358e-08
6.76853e-09
1.59045e-05
-1.58785e-05
-1.00614e-08
1.70027e-05
-1.70302e-05
-6.3466e-09
-7.22834e-09
6.35e-09
4.01846e-06
-4.01758e-06
-1.6141e-08
7.06543e-09
6.50116e-06
-6.49931e-06
3.45406e-09
1.01299e-08
9.04647e-06
-9.07619e-06
2.07325e-08
1.00648e-08
1.15632e-05
-1.15905e-05
2.32414e-09
-2.91035e-09
1.3948e-05
-1.39267e-05
-3.13221e-08
1.856e-10
1.60576e-05
-1.60242e-05
-4.54783e-09
1.71725e-05
-1.7184e-05
-1.52628e-08
-5.85843e-09
4.34637e-09
3.94106e-06
-3.93954e-06
-3.66509e-09
5.40305e-09
6.34619e-06
-6.35379e-06
1.78512e-08
7.74319e-09
8.90712e-06
-8.93638e-06
3.21511e-08
5.084e-09
1.1572e-05
-1.15914e-05
9.90272e-09
-7.151e-09
1.40197e-05
-1.39903e-05
-1.89064e-08
-4.2698e-09
1.61388e-05
-1.61058e-05
-1.40676e-08
1.72689e-05
-1.72653e-05
-8.47719e-09
-4.31493e-09
4.39635e-09
3.89381e-06
-3.89389e-06
1.00892e-09
5.68388e-09
6.22566e-06
-6.23667e-06
2.28368e-08
7.58612e-09
8.75615e-06
-8.78556e-06
3.8865e-08
3.81787e-09
1.15444e-05
-1.15642e-05
1.55171e-08
-6.0928e-09
1.40806e-05
-1.40512e-05
-8.1246e-09
-2.8687e-09
1.6214e-05
-1.61875e-05
-1.07607e-08
1.73531e-05
-1.73469e-05
-3.53653e-09
-2.82054e-09
4.04901e-09
3.87158e-06
-3.87281e-06
2.76305e-09
5.14907e-09
6.14882e-06
-6.15956e-06
2.26965e-08
6.70082e-09
8.63341e-06
-8.66004e-06
4.11978e-08
4.11847e-09
1.15066e-05
-1.15292e-05
1.88762e-08
-4.3791e-09
1.4162e-05
-1.41353e-05
-2.6516e-09
-2.69185e-09
1.63248e-05
-1.63006e-05
-6.57026e-09
1.74732e-05
-1.74703e-05
9.80405e-10
-1.94751e-09
1.48148e-09
3.87061e-06
-3.87015e-06
2.64862e-09
3.14097e-09
6.10834e-06
-6.11607e-06
1.86192e-08
4.17857e-09
8.5514e-06
-8.57155e-06
3.96047e-08
1.90186e-09
1.14649e-05
-1.14878e-05
2.06778e-08
-3.24377e-09
1.42581e-05
-1.4236e-05
6.50722e-10
-1.06561e-09
1.64656e-05
-1.64445e-05
3.58982e-10
1.76282e-05
-1.76237e-05
-4.26067e-09
-4.1324e-09
2.60189e-09
3.84551e-06
-3.84398e-06
-1.48743e-09
2.77843e-09
6.04102e-06
-6.04644e-06
1.02636e-08
3.45234e-09
8.43605e-06
-8.45125e-06
3.13144e-08
2.52415e-09
1.13326e-05
-1.13562e-05
1.78022e-08
-3.3944e-09
1.42503e-05
-1.42334e-05
-2.58408e-09
1.13388e-09
1.65066e-05
-1.64873e-05
-3.69218e-09
1.7677e-05
-1.76699e-05
-6.01299e-09
-1.15446e-09
4.5847e-10
3.84043e-06
-3.83974e-06
1.64593e-09
1.65354e-09
6.00636e-06
-6.01082e-06
1.15726e-08
2.42456e-09
8.36504e-06
-8.3774e-06
3.19395e-08
2.73341e-09
1.12292e-05
-1.12523e-05
2.33192e-08
-8.17037e-10
1.42629e-05
-1.42535e-05
3.51637e-09
4.30368e-09
1.6591e-05
-1.65755e-05
-3.48489e-09
1.77738e-05
-1.77661e-05
-6.58211e-10
-3.06953e-09
-4.82184e-09
3.83471e-06
-3.82683e-06
-2.14405e-09
-5.48191e-09
5.97613e-06
-5.97158e-06
4.73919e-09
-6.022e-09
8.30189e-06
-8.30275e-06
2.21613e-08
-6.92365e-09
1.11219e-05
-1.11324e-05
2.03065e-08
-1.16785e-08
1.42411e-05
-1.42276e-05
1.78974e-09
-7.92541e-09
1.66583e-05
-1.66319e-05
-2.02759e-08
1.78578e-05
-1.78323e-05
-3.44317e-09
-4.74801e-09
5.14682e-09
3.78812e-06
-3.78852e-06
-5.73745e-09
3.91412e-09
5.89312e-06
-5.89605e-06
-1.62083e-09
2.71067e-09
8.17279e-06
-8.17962e-06
1.17126e-08
6.28962e-10
1.09277e-05
-1.09416e-05
1.47301e-08
-4.8278e-09
1.40776e-05
-1.40758e-05
-2.97684e-09
-3.69409e-09
1.65811e-05
-1.65597e-05
-8.86638e-09
1.77915e-05
-1.77659e-05
-1.97937e-08
-1.25191e-09
4.63437e-09
3.79927e-06
-3.80267e-06
-1.49513e-09
6.0183e-09
5.89256e-06
-5.89834e-06
7.69172e-10
6.2463e-09
8.15527e-06
-8.16379e-06
9.24507e-09
5.32958e-09
1.08799e-05
-1.08937e-05
1.29926e-08
1.29451e-09
1.4062e-05
-1.40671e-05
-5.79122e-09
-8.77081e-10
1.66864e-05
-1.66667e-05
-1.2886e-08
1.79243e-05
-1.7895e-05
-2.21897e-08
-7.33207e-09
-2.25205e-09
3.85612e-06
-3.84654e-06
-1.47709e-08
-1.41963e-09
5.955e-06
-5.94614e-06
-2.14347e-08
-7.9801e-10
8.21955e-06
-8.21209e-06
-2.35435e-08
-7.76838e-10
1.09345e-05
-1.09316e-05
-2.43065e-08
-3.35595e-09
1.41375e-05
-1.41333e-05
-4.43812e-08
-5.06311e-09
1.68925e-05
-1.68673e-05
-1.52238e-08
1.81683e-05
-1.81297e-05
-6.77637e-08
-1.28519e-08
1.82476e-09
3.86053e-06
-3.8495e-06
-2.39174e-08
7.80083e-09
5.9355e-06
-5.93224e-06
-3.50409e-08
1.44673e-08
8.17826e-06
-8.1816e-06
-4.76243e-08
2.41054e-08
1.08562e-05
-1.08677e-05
-5.67364e-08
3.24295e-08
1.40211e-05
-1.40444e-05
-8.51824e-08
4.54378e-08
1.68636e-05
-1.68806e-05
5.54919e-08
1.81484e-05
-1.81797e-05
-1.09342e-07
-1.37208e-07
4.29609e-06
-2.24393e-07
-3.93449e-06
-2.69037e-07
6.3038e-06
-2.4582e-07
-5.92616e-06
-4.20181e-07
8.51648e-06
-2.55729e-07
-8.10961e-06
-5.92764e-07
1.11419e-05
-2.63553e-07
-1.07058e-05
-7.49904e-07
1.4158e-05
-2.56002e-07
-1.37448e-05
-8.65515e-07
1.68479e-05
-2.28271e-07
-1.6504e-05
1.79675e-05
-2.18792e-07
-1.77438e-05
-8.70414e-07
-4.36667e-07
-3.43418e-06
3.68686e-06
1.83986e-07
-7.51291e-07
-5.14492e-06
5.38644e-06
7.31028e-08
-1.14069e-06
-6.99312e-06
7.26565e-06
1.16866e-07
-1.55975e-06
-9.1659e-06
9.44052e-06
1.44437e-07
-1.91448e-06
-1.16657e-05
1.18838e-05
1.36709e-07
-2.10471e-06
-1.38958e-05
1.39658e-05
1.20212e-07
-1.48007e-05
1.46721e-05
3.03946e-08
-2.00652e-06
2.01742e-07
6.6017e-07
2.97268e-07
1.06336e-06
2.72019e-07
1.54862e-06
1.4356e-07
2.10447e-06
-7.93822e-08
2.7152e-06
-3.49242e-07
3.22194e-06
3.17287e-06
-3.55253e-07
-1.1842e-06
-1.92361e-06
6.79467e-06
-2.14407e-06
-2.80295e-06
9.14926e-06
-2.96314e-06
-3.78018e-06
1.18649e-05
-3.60151e-06
-4.94832e-06
1.50272e-05
-3.85989e-06
-6.29636e-06
1.84385e-05
-3.67151e-06
-7.57802e-06
2.13554e-05
-8.28071e-06
2.2152e-05
-2.87069e-06
-1.21111e-06
-5.247e-06
6.6421e-06
-2.28151e-06
-7.95409e-06
9.09759e-06
-3.23924e-06
-1.0778e-05
1.18526e-05
-4.0093e-06
-1.41364e-05
1.50509e-05
-4.50878e-06
-1.78361e-05
1.84723e-05
-4.66784e-06
-2.1025e-05
2.13042e-05
-2.22489e-05
2.2138e-05
-4.52649e-06
-1.0467e-06
-3.16831e-06
-1.24712e-06
5.46214e-06
-2.02273e-06
-4.84949e-06
-2.21552e-06
8.04103e-06
-2.84644e-06
-6.64848e-06
-3.22982e-06
1.0702e-05
-3.49595e-06
-8.7546e-06
-4.42641e-06
1.38305e-05
-3.83608e-06
-1.11444e-05
-5.85737e-06
1.73418e-05
-3.73362e-06
-1.33589e-05
-7.17594e-06
2.04323e-05
-1.43579e-05
-7.71869e-06
2.16303e-05
-3.28728e-06
-8.12053e-07
-1.29589e-06
-2.37778e-06
4.48572e-06
-1.44545e-06
-2.37201e-06
-3.93959e-06
6.945e-06
-1.97895e-06
-3.48025e-06
-5.48378e-06
9.49753e-06
-2.35495e-06
-4.76928e-06
-7.33883e-06
1.24841e-05
-2.44313e-06
-6.2862e-06
-9.52501e-06
1.58994e-05
-2.16885e-06
-7.6473e-06
-1.17278e-05
1.91008e-05
-8.12425e-06
-1.31113e-05
2.0795e-05
-1.72823e-06
7.39668e-07
-5.20387e-06
1.19283e-06
-7.67467e-06
1.39957e-06
-1.03355e-05
1.36128e-06
-1.34856e-05
1.06075e-06
-1.713e-05
5.77255e-07
-2.05227e-05
-2.20803e-05
1.75401e-07
-4.66942e-07
-8.65238e-07
-1.79538e-06
3.12756e-06
-7.41758e-07
-2.06672e-06
-3.35863e-06
5.70016e-06
-9.40912e-07
-3.1546e-06
-4.81994e-06
8.1737e-06
-1.01505e-06
-4.38032e-06
-6.57523e-06
1.10297e-05
-9.13093e-07
-5.77678e-06
-8.68628e-06
1.43611e-05
-6.43192e-07
-7.06385e-06
-1.09168e-05
1.77107e-05
-7.5061e-06
-1.26105e-05
1.97164e-05
-2.42936e-07
8.83062e-07
-4.12608e-06
1.39279e-06
-6.51604e-06
1.73877e-06
-8.98436e-06
1.90649e-06
-1.18869e-05
1.85046e-06
-1.52458e-05
1.54842e-06
-1.84896e-05
-2.02841e-05
1.21507e-06
-3.55819e-07
-5.23929e-07
-1.32492e-06
2.20467e-06
-3.86474e-07
-1.81474e-06
-2.82814e-06
4.67354e-06
-3.3162e-07
-2.8962e-06
-4.23219e-06
7.07353e-06
-1.6965e-07
-4.08836e-06
-5.88692e-06
9.81331e-06
1.50758e-07
-5.48321e-06
-7.87991e-06
1.30427e-05
6.34341e-07
-6.81878e-06
-1.01044e-05
1.64396e-05
-7.48587e-06
-1.1763e-05
1.88218e-05
1.06144e-06
1.05402e-06
-3.37333e-06
1.66325e-06
-5.7826e-06
2.1202e-06
-8.17309e-06
2.43443e-06
-1.09778e-05
2.53598e-06
-1.4271e-05
2.38729e-06
-1.75868e-05
-1.96444e-05
1.93527e-06
-3.14188e-07
-4.09539e-07
-9.60425e-07
1.68415e-06
-1.7632e-07
-1.72091e-06
-2.4982e-06
4.08125e-06
2.03439e-08
-2.79061e-06
-3.88344e-06
6.47739e-06
2.84785e-07
-4.0487e-06
-5.40306e-06
9.18732e-06
6.97074e-07
-5.51441e-06
-7.24385e-06
1.2346e-05
1.19456e-06
-6.98913e-06
-9.24405e-06
1.57357e-05
-8.00405e-06
-1.08552e-05
1.81868e-05
1.8671e-06
1.14074e-06
-2.8752e-06
1.87172e-06
-5.28003e-06
2.48609e-06
-7.63717e-06
2.9312e-06
-1.03807e-05
3.1536e-06
-1.36167e-05
3.05319e-06
-1.69931e-05
-1.92808e-05
2.56688e-06
-3.25821e-07
-5.4867e-07
-7.10945e-07
1.58544e-06
-2.1506e-07
-1.85619e-06
-2.20753e-06
3.95296e-06
-2.96278e-08
-3.01537e-06
-3.50591e-06
6.33585e-06
2.16823e-07
-4.32101e-06
-4.9534e-06
9.02796e-06
5.64991e-07
-5.85942e-06
-6.67724e-06
1.21885e-05
1.00242e-06
-7.53679e-06
-8.49199e-06
1.55914e-05
-8.5362e-06
-9.88146e-06
1.81424e-05
1.2777e-06
1.20255e-06
-2.71164e-06
1.95935e-06
-5.11119e-06
2.53018e-06
-7.46964e-06
3.00153e-06
-1.01954e-05
3.3015e-06
-1.34032e-05
3.28362e-06
-1.6763e-05
-1.91065e-05
2.99865e-06
-3.43351e-07
-8.22561e-07
-6.6025e-07
1.82616e-06
-2.80448e-07
-2.1615e-06
-2.10137e-06
4.19996e-06
-1.51267e-07
-3.34482e-06
-3.34981e-06
6.56546e-06
5.44114e-08
-4.74112e-06
-4.71864e-06
9.25409e-06
3.84871e-07
-6.38303e-06
-6.37246e-06
1.2425e-05
8.71994e-07
-8.19815e-06
-8.11178e-06
1.58228e-05
-9.5853e-06
-9.19475e-06
1.83225e-05
1.3295e-06
1.1961e-06
-2.72961e-06
1.92484e-06
-5.09777e-06
2.50121e-06
-7.42711e-06
2.94325e-06
-1.01366e-05
3.21722e-06
-1.33342e-05
3.20614e-06
-1.66791e-05
-1.90266e-05
2.76603e-06
-4.53704e-07
-1.24767e-06
-6.58077e-07
2.35945e-06
-6.10642e-07
-2.58562e-06
-2.08502e-06
4.82758e-06
-6.73321e-07
-3.83822e-06
-3.30968e-06
7.21058e-06
-6.0824e-07
-5.30315e-06
-4.71024e-06
9.94831e-06
-3.4395e-07
-7.08104e-06
-6.34446e-06
1.31612e-05
6.59818e-08
-9.01202e-06
-7.9522e-06
1.65543e-05
-1.0524e-05
-8.85624e-06
1.88845e-05
5.61772e-07
1.05599e-06
-2.96391e-06
1.71839e-06
-5.34938e-06
2.2205e-06
-7.69014e-06
2.62576e-06
-1.04271e-05
2.82577e-06
-1.36535e-05
2.70303e-06
-1.70011e-05
-1.92181e-05
2.20233e-06
-4.44614e-07
-1.7712e-06
-9.04798e-07
3.12062e-06
-7.11334e-07
-3.20236e-06
-2.19504e-06
5.66413e-06
-8.97798e-07
-4.55243e-06
-3.38639e-06
8.12528e-06
-9.7266e-07
-6.15017e-06
-4.7321e-06
1.09571e-05
-8.84191e-07
-8.06375e-06
-6.28036e-06
1.42556e-05
-5.93161e-07
-1.01646e-05
-7.73222e-06
1.76058e-05
-1.17124e-05
-8.31117e-06
1.9602e-05
-1.7161e-07
1.03218e-06
-3.46146e-06
1.65592e-06
-5.91113e-06
2.13268e-06
-8.33886e-06
2.44516e-06
-1.11729e-05
2.51622e-06
-1.44793e-05
2.22076e-06
-1.78214e-05
-1.98737e-05
1.52587e-06
-8.64208e-07
-2.27028e-06
-1.42795e-06
4.56243e-06
-1.45415e-06
-3.82244e-06
-2.53948e-06
6.95185e-06
-1.95624e-06
-5.33221e-06
-3.62711e-06
9.46141e-06
-2.31173e-06
-7.12035e-06
-4.92934e-06
1.24052e-05
-2.41672e-06
-9.21242e-06
-6.46781e-06
1.57852e-05
-2.15172e-06
-1.13456e-05
-7.89494e-06
1.89756e-05
-1.27743e-05
-8.24003e-06
2.06081e-05
-1.74543e-06
9.66336e-07
-4.14141e-06
1.51756e-06
-6.5687e-06
1.87143e-06
-9.07246e-06
2.03544e-06
-1.20165e-05
1.96613e-06
-1.54235e-05
1.65086e-06
-1.87626e-05
-2.06542e-05
1.21959e-06
-1.27004e-06
-2.26299e-06
-2.60969e-06
6.14272e-06
-2.33354e-06
-3.49274e-06
-3.95085e-06
8.50709e-06
-3.20802e-06
-4.83559e-06
-5.39117e-06
1.11012e-05
-3.80526e-06
-6.42297e-06
-7.11258e-06
1.41328e-05
-3.98909e-06
-8.22649e-06
-9.0975e-06
1.75078e-05
-3.75254e-06
-9.81155e-06
-1.09508e-05
2.05258e-05
-1.01234e-05
-1.20819e-05
2.14946e-05
-3.04189e-06
2.02147e-07
-4.38875e-06
3.32371e-07
-6.42592e-06
3.47542e-07
-8.63094e-06
2.007e-07
-1.12244e-05
-1.24626e-07
-1.41975e-05
-6.00658e-07
-1.69135e-05
-1.79065e-05
-1.09831e-06
3.96367e-07
-4.434e-06
6.49545e-07
-6.74351e-06
7.87749e-07
-9.15648e-06
7.54406e-07
-1.20086e-05
5.128e-07
-1.53237e-05
6.91364e-08
-1.84021e-05
-1.98212e-05
-4.31545e-07
1.25163e-06
-7.74576e-06
1.84485e-06
-1.07628e-05
2.08258e-06
-1.42456e-05
1.91548e-06
-1.83957e-05
1.29198e-06
-2.30699e-05
2.42404e-07
-2.71513e-05
-2.87583e-05
-9.66902e-07
3.28654e-07
6.18126e-06
3.79339e-07
8.13295e-06
4.41442e-07
1.0099e-05
3.53206e-07
1.24981e-05
3.07808e-07
1.48221e-05
2.20424e-07
1.70068e-05
1.82274e-05
1.17778e-07
-6.18016e-07
5.0056e-06
-4.39756e-06
-9.55101e-07
6.98703e-06
-6.65824e-06
-1.18116e-06
8.87363e-06
-8.65368e-06
-1.24435e-06
1.08494e-05
-1.07872e-05
-1.0973e-06
1.29632e-05
-1.31132e-05
-8.17474e-07
1.49065e-05
-1.51915e-05
1.59403e-05
-1.62839e-05
-4.62453e-07
-3.76617e-07
-4.75747e-06
5.12202e-06
1.20666e-08
-7.43924e-07
-7.11154e-06
7.46684e-06
1.20143e-08
-8.4082e-07
-9.46783e-06
9.5605e-06
4.22356e-09
-7.93536e-07
-1.17442e-05
1.16992e-05
-2.27588e-09
-5.78367e-07
-1.4199e-05
1.399e-05
-6.21163e-09
-2.89744e-07
-1.64124e-05
1.613e-05
-6.19375e-09
-1.7564e-05
1.73406e-05
-1.56957e-08
-5.06088e-08
1.97635e-07
5.04963e-08
2.61395e-07
-1.88275e-07
1.31744e-07
-4.6454e-07
-2.40872e-08
-7.39026e-07
-2.22943e-07
-1.03686e-06
-3.75288e-07
-1.35355e-06
-1.59122e-06
-4.0778e-07
-1.76503e-07
-4.62106e-06
4.80169e-06
-4.02099e-07
-7.03168e-06
7.25776e-06
-4.09181e-07
-9.41448e-06
9.42966e-06
-3.3376e-07
-1.16687e-05
1.16066e-05
-1.95758e-07
-1.40281e-05
1.39082e-05
-1.01005e-07
-1.61292e-05
1.60482e-05
-1.72343e-05
1.71856e-05
-6.99589e-08
2.80535e-07
2.20423e-07
5.14283e-07
2.01411e-07
4.66901e-07
1.93404e-07
2.836e-07
2.13856e-07
5.23751e-08
1.93126e-07
-1.06425e-07
1.59609e-07
1.10833e-07
-1.11015e-07
-1.07322e-07
-4.49282e-06
4.60272e-06
-2.58221e-09
-2.66562e-07
-6.96691e-06
7.13609e-06
-9.93762e-09
-2.54463e-07
-9.41414e-06
9.40797e-06
-5.93761e-09
-1.79532e-07
-1.16963e-05
1.16295e-05
-8.18343e-09
-1.04445e-07
-1.40306e-05
1.39601e-05
-4.63776e-09
-7.95187e-08
-1.61205e-05
1.60954e-05
1.16828e-10
-1.73049e-05
1.71939e-05
4.6492e-08
-1.49984e-08
1.81753e-07
1.27125e-07
3.75195e-07
9.74073e-08
3.35621e-07
5.51014e-08
1.78652e-07
6.72421e-08
1.58498e-08
4.03693e-08
-7.73073e-08
2.08945e-08
-6.05684e-08
-1.36038e-07
-5.62379e-08
-4.42796e-06
4.48859e-06
-1.52996e-07
-6.97387e-06
7.08394e-06
-1.31021e-07
-9.48928e-06
9.4743e-06
-6.46099e-08
-1.18301e-05
1.17819e-05
-3.29082e-08
-1.41799e-05
1.41455e-05
-4.87911e-08
-1.62944e-05
1.6303e-05
-1.74909e-05
1.74202e-05
-2.71238e-08
1.08002e-07
6.67583e-08
2.32339e-07
3.78767e-08
2.05767e-07
-5.47303e-08
8.63513e-08
-8.11282e-08
-2.68332e-08
-1.0657e-07
-6.79898e-08
-1.57843e-07
-2.64232e-07
-1.00759e-07
-2.84585e-08
-4.35757e-06
4.39578e-06
-9.74656e-09
-8.77605e-08
-6.94979e-06
7.02559e-06
-1.65046e-08
-6.2304e-08
-9.52906e-06
9.51607e-06
-1.24686e-08
-6.97191e-09
-1.19416e-05
1.19067e-05
-2.04933e-08
4.35947e-09
-1.43133e-05
1.4304e-05
-1.98228e-09
-2.15674e-08
-1.64497e-05
1.64792e-05
-3.617e-09
-1.76571e-05
1.76142e-05
1.60556e-08
5.3179e-09
7.47832e-08
5.62397e-08
1.71543e-07
3.73928e-08
1.61819e-07
-4.50402e-08
7.38457e-08
-7.16437e-08
-5.9906e-09
-8.79974e-08
-2.71189e-08
-1.25521e-07
-2.19593e-07
-4.44234e-08
-1.46558e-08
-4.27514e-06
4.30064e-06
-5.09887e-08
-6.88142e-06
6.92984e-06
-2.42532e-08
-9.50715e-06
9.49393e-06
2.05468e-08
-1.19884e-05
1.19615e-05
1.87417e-08
-1.43774e-05
1.43829e-05
-1.33414e-08
-1.65261e-05
1.6565e-05
-1.77363e-05
1.77086e-05
4.27741e-09
6.34021e-08
5.7237e-08
1.50156e-07
5.74143e-08
1.60015e-07
-9.29765e-10
9.32063e-08
-1.48235e-08
2.50647e-08
-5.21743e-09
6.45107e-09
-2.82786e-08
-1.21524e-07
5.83801e-09
-8.12645e-09
-4.19936e-06
4.21519e-06
-7.696e-09
-2.77026e-08
-6.79276e-06
6.8206e-06
-8.25801e-09
-1.56415e-09
-9.44788e-06
9.43331e-06
-1.15664e-08
3.49657e-08
-1.19981e-05
1.19748e-05
-1.32953e-08
2.33508e-08
-1.44048e-05
1.44165e-05
-6.95761e-11
-1.00291e-08
-1.65645e-05
1.66009e-05
-3.04724e-09
-1.77739e-05
1.77481e-05
7.79456e-09
8.02451e-09
5.18572e-08
4.9416e-08
1.31186e-07
5.7745e-08
1.54438e-07
2.27993e-08
1.00986e-07
1.69172e-08
4.27201e-08
3.63345e-08
1.86748e-08
2.45267e-08
-4.47053e-08
-1.94003e-09
-4.96851e-09
-4.1381e-06
4.14942e-06
-1.22448e-08
-6.7046e-06
6.71894e-06
1.51028e-08
-9.37657e-06
9.35935e-06
4.54317e-08
-1.19971e-05
1.19768e-05
2.6806e-08
-1.44272e-05
1.44429e-05
-7.3615e-09
-1.65953e-05
1.66297e-05
-1.78059e-05
1.77852e-05
8.78276e-09
3.87443e-08
3.83386e-08
1.06113e-07
4.863e-08
1.37834e-07
2.50182e-08
9.61989e-08
1.93751e-08
4.50717e-08
4.04135e-08
2.1388e-08
2.92746e-08
-3.66367e-08
1.75159e-10
-2.69047e-09
-4.09366e-06
4.10176e-06
-5.41089e-09
-1.13459e-09
-6.62603e-06
6.6312e-06
-6.72123e-09
2.76009e-08
-9.30302e-06
9.28357e-06
-9.28749e-09
5.40925e-08
-1.19973e-05
1.19784e-05
-7.61875e-09
3.19057e-08
-1.4458e-05
1.44755e-05
4.66966e-09
8.38002e-11
-1.66368e-05
1.66673e-05
1.24095e-09
-1.78459e-05
1.783e-05
9.9198e-09
6.0802e-09
2.69995e-08
2.87594e-08
8.08272e-08
3.90787e-08
1.17184e-07
1.99745e-08
8.52469e-08
1.15069e-08
3.96646e-08
3.05446e-08
1.57398e-08
1.68304e-08
-4.8554e-08
3.61481e-09
-1.57415e-09
-4.06197e-06
4.06789e-06
4.57264e-09
-6.55678e-06
6.55604e-06
3.37629e-08
-9.22868e-06
9.20723e-06
5.79114e-08
-1.19955e-05
1.19765e-05
3.3058e-08
-1.44947e-05
1.45124e-05
1.49308e-09
-1.66835e-05
1.67108e-05
-1.78946e-05
1.78764e-05
5.61447e-09
1.87654e-08
2.10331e-08
6.43447e-08
2.88375e-08
1.03804e-07
1.54355e-08
8.14533e-08
5.23313e-09
4.02044e-08
2.20558e-08
1.71425e-08
6.93056e-09
-5.37765e-08
6.33054e-09
-1.34693e-09
-4.03761e-06
4.04329e-06
-4.33487e-09
6.59349e-09
-6.49512e-06
6.49245e-06
-5.27478e-09
3.5098e-08
-9.15245e-06
9.13125e-06
-7.29721e-09
5.77373e-08
-1.19868e-05
1.19685e-05
-4.36791e-09
3.12319e-08
-1.45325e-05
1.45518e-05
7.24742e-09
3.56186e-10
-1.67332e-05
1.67593e-05
4.68422e-09
-1.79455e-05
1.79333e-05
1.49747e-08
-2.4344e-09
1.29929e-08
1.72797e-08
5.02826e-08
2.36285e-08
8.95657e-08
1.54914e-08
7.44667e-08
4.757e-09
3.49376e-08
1.93995e-08
9.27327e-09
3.2897e-09
-5.03483e-08
-9.47475e-09
-2.05823e-11
-4.0191e-06
4.02351e-06
9.72744e-09
-6.44123e-06
6.43716e-06
3.85467e-08
-9.07707e-06
9.05583e-06
6.25176e-08
-1.19711e-05
1.19509e-05
3.67754e-08
-1.45692e-05
1.45889e-05
7.99307e-09
-1.67822e-05
1.68081e-05
-1.79952e-05
1.79893e-05
3.13377e-09
9.49861e-09
1.46984e-08
4.08382e-08
1.98867e-08
8.01934e-08
1.48253e-08
7.24162e-08
5.20332e-09
3.74583e-08
1.74963e-08
1.31637e-08
1.42841e-09
-4.96459e-08
8.77626e-10
-8.97746e-11
-4.00561e-06
4.00957e-06
-3.873e-09
9.30108e-09
-6.3964e-06
6.39193e-06
-4.92273e-09
3.61814e-08
-9.00577e-06
8.98559e-06
-6.69471e-09
6.03625e-08
-1.19485e-05
1.19277e-05
-3.41078e-09
3.44371e-08
-1.46076e-05
1.46273e-05
6.24586e-09
5.32238e-09
-1.68336e-05
1.686e-05
2.69737e-09
-1.80459e-05
1.80473e-05
1.02593e-08
-6.32631e-09
7.17486e-09
1.07293e-08
3.32583e-08
1.46783e-08
7.09939e-08
1.23265e-08
7.1011e-08
2.47698e-09
4.00433e-08
1.22693e-08
1.859e-08
-4.05151e-09
-5.00838e-08
1.20829e-08
2.0356e-10
-3.99677e-06
4.00062e-06
9.40829e-09
-6.35947e-06
6.35542e-06
3.41192e-08
-8.94178e-06
8.92377e-06
5.86256e-08
-1.1921e-05
1.19006e-05
3.49702e-08
-1.46473e-05
1.46666e-05
7.79961e-09
-1.68924e-05
1.69169e-05
-1.81072e-05
1.81083e-05
1.18985e-10
4.05791e-09
8.74048e-09
2.47218e-08
1.17948e-08
5.83821e-08
1.01483e-08
6.41298e-08
9.48061e-10
3.57644e-08
8.29064e-09
1.28314e-08
-9.46838e-09
-4.69757e-08
-6.60165e-11
-4.2346e-10
-3.98974e-06
3.99375e-06
-3.58948e-09
7.84599e-09
-6.32695e-06
6.32382e-06
-5.1352e-09
2.95443e-08
-8.88274e-06
8.86752e-06
-6.48288e-09
5.37217e-08
-1.18854e-05
1.18652e-05
-3.93815e-09
3.10146e-08
-1.46819e-05
1.4702e-05
2.59328e-09
3.41918e-09
-1.69441e-05
1.69744e-05
-2.68635e-09
-1.81597e-05
1.8175e-05
-3.9533e-09
-7.95766e-09
2.05078e-09
8.82465e-09
1.89462e-08
1.15716e-08
4.87649e-08
1.12094e-08
6.02677e-08
3.68725e-09
3.52906e-08
9.70632e-09
1.2587e-08
-4.44997e-09
-4.38752e-08
5.07335e-09
-8.41045e-10
-3.98403e-06
3.98635e-06
6.29907e-09
-6.29775e-06
6.29375e-06
2.53791e-08
-8.82744e-06
8.81254e-06
5.00615e-08
-1.18409e-05
1.18181e-05
3.08122e-08
-1.47088e-05
1.47248e-05
5.37687e-09
-1.69962e-05
1.70206e-05
-1.8211e-05
1.82263e-05
-9.6417e-09
6.91519e-10
9.03225e-09
1.41809e-08
1.25766e-08
4.0082e-08
1.41783e-08
5.5069e-08
9.31459e-09
3.28743e-08
1.53663e-08
1.11276e-08
-9.99209e-11
-2.92288e-08
4.42018e-09
-1.06704e-09
-3.97681e-06
3.9782e-06
-3.22747e-10
4.84977e-09
-6.26871e-06
6.264e-06
-1.20529e-09
2.16378e-08
-8.77335e-06
8.75858e-06
-2.01886e-09
4.74323e-08
-1.17848e-05
1.17599e-05
-9.57495e-10
3.13768e-08
-1.47229e-05
1.47337e-05
5.23644e-09
8.959e-09
-1.70354e-05
1.70562e-05
1.65879e-09
-1.82565e-05
1.82635e-05
3.9973e-09
-1.99851e-09
1.15586e-09
8.38406e-09
1.34438e-08
1.27504e-08
3.6659e-08
1.59726e-08
5.57735e-08
1.42144e-08
3.70275e-08
2.07135e-08
1.59301e-08
6.25201e-09
-2.28941e-08
8.64037e-09
-1.71177e-09
-3.96608e-06
3.9704e-06
2.54427e-09
-6.2369e-06
6.23543e-06
1.65383e-08
-8.71672e-06
8.70618e-06
4.0851e-08
-1.17155e-05
1.16937e-05
2.71326e-08
-1.47196e-05
1.47299e-05
6.18125e-09
-1.70609e-05
1.70829e-05
-1.82864e-05
1.82933e-05
-4.38066e-09
1.15249e-09
1.09629e-08
1.15036e-08
1.67437e-08
3.17812e-08
2.1583e-08
5.28271e-08
2.33766e-08
3.625e-08
3.06596e-08
1.46082e-08
1.69648e-08
-1.01621e-08
1.84977e-09
-2.34174e-09
-3.95225e-06
3.95801e-06
-3.41959e-09
8.20659e-10
-6.20197e-06
6.20299e-06
-4.17629e-09
1.27562e-08
-8.65657e-06
8.64941e-06
-4.77636e-09
3.55487e-08
-1.16339e-05
1.16153e-05
-4.2695e-09
2.46112e-08
-1.4696e-05
1.47065e-05
4.26366e-10
4.61175e-09
-1.70679e-05
1.70931e-05
-5.21726e-09
-1.82964e-05
1.83068e-05
-3.38888e-09
-2.39848e-09
2.51505e-09
1.563e-08
1.18105e-08
2.41582e-08
2.97751e-08
3.16418e-08
5.16157e-08
3.80031e-08
3.79191e-08
4.75956e-08
1.63234e-08
3.66736e-08
1.84856e-08
-5.24312e-09
-2.82692e-09
-3.94091e-06
3.94419e-06
-2.435e-10
-6.17118e-06
6.17025e-06
1.04603e-08
-8.60196e-06
8.59368e-06
3.27546e-08
-1.15537e-05
1.15341e-05
2.59292e-08
-1.46679e-05
1.46739e-05
7.13066e-09
-1.70749e-05
1.7098e-05
-1.83095e-05
1.83155e-05
-2.35386e-09
2.90474e-09
1.42011e-08
1.09765e-08
2.37366e-08
2.69988e-08
3.14308e-08
4.97162e-08
3.89425e-08
3.74669e-08
5.08804e-08
1.40708e-08
4.15816e-08
2.67913e-08
-1.54349e-08
-1.35698e-09
-3.9406e-06
3.9381e-06
3.85747e-09
1.52539e-09
-6.15654e-06
6.15036e-06
3.29799e-09
1.17738e-08
-8.56903e-06
8.556e-06
2.78069e-09
3.36263e-08
-1.14983e-05
1.14739e-05
2.54763e-09
3.04991e-08
-1.46625e-05
1.46596e-05
6.0789e-09
1.38268e-08
-1.71118e-05
1.71296e-05
-1.18908e-09
-1.83527e-05
1.83535e-05
2.95209e-09
1.00096e-08
2.15532e-10
3.37606e-09
6.18471e-09
7.73771e-09
1.93812e-08
1.14597e-08
4.08129e-08
1.43775e-08
3.40231e-08
1.81617e-08
1.4983e-08
5.27564e-09
-1.42569e-08
-7.9598e-09
1.20121e-09
-3.95187e-06
3.94584e-06
4.77292e-09
-6.16132e-06
6.15226e-06
1.42845e-08
-8.56337e-06
8.54783e-06
3.43321e-08
-1.14776e-05
1.14506e-05
3.34651e-08
-1.46932e-05
1.46824e-05
1.62725e-08
-1.71981e-05
1.72074e-05
-1.84527e-05
1.84411e-05
7.58387e-09
-6.47579e-09
-7.29573e-09
-6.34587e-09
-1.10895e-08
1.81496e-09
-1.55349e-08
2.05282e-08
-2.24234e-08
1.76064e-08
-3.07092e-08
2.22466e-09
-5.3097e-08
-8.6041e-08
-1.09329e-08
3.22591e-09
-3.96581e-06
3.9619e-06
6.84155e-10
7.68248e-09
-6.1741e-06
6.16742e-06
2.22508e-09
1.68204e-08
-8.57073e-06
8.55809e-06
3.50636e-09
3.51481e-08
-1.14739e-05
1.14501e-05
5.45308e-09
3.6211e-08
-1.47372e-05
1.47247e-05
1.13833e-08
1.67559e-08
-1.73038e-05
1.73132e-05
1.00526e-08
-1.85713e-05
1.85645e-05
2.06636e-08
2.91671e-09
-8.83956e-09
-1.11357e-08
-1.16981e-08
-1.89861e-08
-6.19574e-09
-2.83998e-08
1.12168e-08
-4.06432e-08
1.21354e-08
-5.57014e-08
-8.53079e-10
-8.34559e-08
-1.14648e-07
-1.63513e-08
2.31073e-09
-3.97267e-06
3.9755e-06
6.45882e-09
-6.1787e-06
6.17846e-06
1.48272e-08
-8.56911e-06
8.56346e-06
3.16734e-08
-1.1459e-05
1.14428e-05
3.5765e-08
-1.47586e-05
1.47496e-05
1.83419e-08
-1.73891e-05
1.74028e-05
-1.86692e-05
1.86727e-05
5.98138e-09
-6.79408e-09
-3.97908e-09
-8.60988e-09
-9.46528e-09
-3.12837e-09
-1.65123e-08
1.36138e-08
-2.56826e-08
1.80853e-08
-3.82997e-08
5.72073e-09
-6.34778e-08
-9.37239e-08
-5.32928e-09
3.88424e-10
-3.96956e-06
3.9769e-06
-7.73412e-09
3.78711e-09
-6.16854e-06
6.17305e-06
-7.91595e-09
1.11186e-08
-8.54782e-06
8.54763e-06
-7.14337e-09
2.66182e-08
-1.14188e-05
1.14087e-05
-5.34588e-09
3.4758e-08
-1.47381e-05
1.47307e-05
-7.49209e-10
1.97052e-08
-1.7429e-05
1.74446e-05
-5.5796e-10
-1.87184e-05
1.87287e-05
8.81146e-09
5.91142e-10
-1.15845e-09
7.09872e-09
1.10181e-09
7.65964e-09
8.98235e-09
7.75555e-09
2.59252e-08
7.02752e-09
3.35197e-08
3.95474e-09
2.00828e-08
-1.27809e-08
-3.1595e-08
5.97156e-09
-4.26801e-09
-3.96284e-06
3.97173e-06
-4.64466e-09
-6.15035e-06
6.15673e-06
-1.17362e-09
-8.51478e-06
8.51755e-06
9.36698e-09
-1.13625e-05
1.13573e-05
1.5432e-08
-1.46856e-05
1.46809e-05
-7.86055e-09
-1.74317e-05
1.74541e-05
-1.87258e-05
1.87471e-05
-4.20443e-08
2.03676e-09
1.20166e-08
6.53851e-09
1.81973e-08
1.53651e-08
2.40145e-08
3.17198e-08
2.98144e-08
4.17468e-08
3.50238e-08
2.62685e-08
2.83747e-08
1.47047e-08
1.45167e-08
-8.87173e-09
-3.96471e-06
3.97328e-06
3.02768e-10
-1.43005e-08
-6.13974e-06
6.14583e-06
-6.69559e-10
-1.60473e-08
-8.49015e-06
8.49282e-06
-9.29343e-10
-1.1202e-08
-1.13151e-05
1.13105e-05
-2.44558e-10
-7.06085e-09
-1.46335e-05
1.46264e-05
2.90199e-09
-2.52741e-08
-1.74379e-05
1.74518e-05
4.26754e-09
-1.87457e-05
1.87527e-05
2.1657e-08
-5.39593e-08
-2.90956e-09
9.91695e-09
-3.90818e-09
1.79867e-08
-1.59197e-09
2.50844e-08
7.09899e-09
3.34596e-08
1.23886e-08
4.21351e-08
-9.20143e-09
3.78333e-08
2.71278e-08
-3.49124e-08
-1.67105e-08
-3.95765e-06
3.97211e-06
-3.20334e-08
-6.11262e-06
6.12653e-06
-4.40587e-08
-8.44099e-06
8.45222e-06
-4.87121e-08
-1.12343e-05
1.12382e-05
-4.85983e-08
-1.45289e-05
1.45254e-05
-6.33284e-08
-1.73774e-05
1.73871e-05
-1.86974e-05
1.8695e-05
-7.61521e-08
-9.70453e-10
1.65932e-08
-4.89363e-10
3.27331e-08
1.05734e-09
5.02823e-08
7.32495e-09
6.9937e-08
1.12179e-08
9.35937e-08
-1.2044e-08
9.76777e-08
7.31918e-08
-2.99416e-08
-3.08302e-08
-3.86884e-06
3.9037e-06
-4.02938e-09
-5.71888e-08
-5.97828e-06
6.01136e-06
-6.71912e-09
-7.84447e-08
-8.25052e-06
8.28091e-06
-9.13676e-09
-8.79698e-08
-1.09702e-05
1.09915e-05
-1.17793e-08
-8.30723e-08
-1.4184e-05
1.41916e-05
-1.24987e-08
-8.1762e-08
-1.70184e-05
1.70324e-05
-1.53431e-08
-1.83327e-05
1.8334e-05
-8.85584e-09
-7.41559e-08
2.30419e-08
8.02289e-08
3.69955e-08
1.34296e-07
4.63681e-08
1.92329e-07
5.44666e-08
2.59891e-07
5.74113e-08
3.38548e-07
3.36475e-08
3.92434e-07
3.9028e-07
5.62107e-09
-5.22362e-08
-3.67764e-06
3.7317e-06
-9.51929e-08
-5.68954e-06
5.7403e-06
-1.31059e-07
-7.85025e-06
7.90059e-06
-1.5368e-07
-1.04298e-05
1.04766e-05
-1.56314e-07
-1.34783e-05
1.35133e-05
-1.56049e-07
-1.62201e-05
1.62653e-05
-1.74766e-05
1.7502e-05
-1.2597e-07
5.93386e-08
1.6672e-07
9.86392e-08
2.82516e-07
1.23142e-07
4.06151e-07
1.37931e-07
5.46903e-07
1.35004e-07
7.16217e-07
9.21689e-08
8.55148e-07
9.03489e-07
4.60779e-08
-6.01903e-08
-3.48942e-06
3.45304e-06
9.65656e-08
-1.11502e-07
-5.39457e-06
5.36473e-06
8.11457e-08
-1.63157e-07
-7.44033e-06
7.4129e-06
7.90885e-08
-2.16708e-07
-9.87568e-06
9.85721e-06
7.20258e-08
-2.64846e-07
-1.27499e-05
1.27434e-05
5.46854e-08
-2.98783e-07
-1.53889e-05
1.54043e-05
1.85362e-08
-1.65865e-05
1.66095e-05
-1.32766e-08
-3.08466e-07
5.3379e-08
1.889e-07
8.57639e-08
3.1334e-07
9.53885e-08
4.50627e-07
8.87103e-08
6.07561e-07
6.11723e-08
7.90916e-07
-4.265e-09
9.41776e-07
9.81018e-07
-6.98469e-08
8.73899e-09
4.01076e-06
-4.2439e-06
-1.43149e-08
6.17749e-06
-6.40025e-06
-1.11286e-07
8.60557e-06
-8.76433e-06
-2.8986e-07
1.14947e-05
-1.15797e-05
-5.02423e-07
1.48345e-05
-1.48779e-05
-6.75282e-07
1.78549e-05
-1.79103e-05
1.92157e-05
-1.92895e-05
-8.20327e-07
-1.67188e-06
-2.06311e-06
-2.98051e-06
-3.27671e-06
-4.06788e-06
-4.55265e-06
-4.8837e-06
-6.08513e-06
-5.20497e-06
-7.91418e-06
-4.81469e-06
-9.68674e-06
-1.06377e-05
-3.71961e-06
-2.33655e-07
-5.57199e-07
-4.12074e-07
-8.57102e-07
-5.82439e-07
-1.18106e-06
-7.38449e-07
-1.56648e-06
-8.40199e-07
-2.03277e-06
-8.43278e-07
-2.50284e-06
-2.78731e-06
-7.35931e-07
7.08442e-07
2.43461e-06
3.37064e-06
1.06997e-06
3.25761e-06
4.56769e-06
1.4199e-06
4.02984e-06
5.78846e-06
1.60351e-06
5.01394e-06
7.21887e-06
1.60776e-06
6.00643e-06
8.7746e-06
1.34611e-06
6.98754e-06
1.02036e-05
7.56571e-06
1.10383e-05
8.778e-07
7.82049e-07
2.81723e-06
2.91447e-06
1.23196e-06
3.80494e-06
3.93191e-06
1.5432e-06
4.85192e-06
5.00502e-06
1.70001e-06
6.03825e-06