/*--------------------------------*- C++ -*----------------------------------*\
  =========                 |
  \\      /  F ield         | OpenFOAM: The Open Source CFD Toolbox
   \\    /   O peration     | Website:  https://openfoam.org
    \\  /    A nd           | Version:  12
     \\/     M anipulation  |
\*---------------------------------------------------------------------------*/
FoamFile
{
    format      ascii;
    class       volVectorField;
    location    "13000";
    object      U;
}
// * * * * * * * * * * * * * * * * * * * * * * * * * * * * * * * * * * * * * //

dimensions      [0 1 -1 0 0 0 0];

internalField   nonuniform List<vector> 
24749
(
(-0.00335217 4.76693 -0.0665631)
(-0.0186288 4.87781 -0.0295682)
(-0.0299927 4.93492 -0.0324579)
(-0.0339055 4.96242 -0.0160001)
(-0.0336436 4.98246 -0.00642137)
(-0.0322875 4.99374 -1.76302e-05)
(-0.0281053 4.99938 0.00352178)
(-0.0134507 4.10365 0.709693)
(0.0466002 4.74919 0.315013)
(0.07684 4.94237 0.183952)
(0.106189 5.01202 0.136393)
(0.114513 5.07912 0.0726677)
(0.123536 5.11817 0.0264164)
(0.10897 5.1081 -0.000829531)
(-0.0347707 3.94615 0.19776)
(-0.00618444 4.74417 0.180663)
(0.0386792 4.99747 0.0242064)
(0.0472851 5.04291 -0.0203466)
(0.0445204 5.07698 -0.037974)
(0.031968 5.10896 -0.0224316)
(0.0326289 5.11227 -0.00158273)
(-0.0180008 3.7066 0.0825219)
(-0.00758081 4.64667 0.0796854)
(0.0165374 5.01314 0.0022254)
(0.0186325 5.09936 -0.0273246)
(0.0149646 5.13544 -0.0148542)
(0.00968265 5.16352 -0.00237251)
(0.0138993 5.16091 -0.00146366)
(-0.00843396 3.53098 0.0349803)
(-0.0055359 4.52479 0.0387518)
(0.00525507 4.99001 -0.0022407)
(0.00631189 5.13437 -0.0212013)
(0.00337654 5.17574 -0.00726939)
(0.00383207 5.20289 -0.000546824)
(0.00842618 5.19945 -0.00446531)
(-0.00375381 3.41587 0.0183058)
(-0.00396311 4.40301 0.0219148)
(0.000244638 4.93532 0.000196595)
(0.000892772 5.15232 -0.0132388)
(-0.00135025 5.20633 -0.00114414)
(0.00264289 5.23386 0.00192945)
(0.00526667 5.23114 -0.00377169)
(-0.00155495 3.34787 0.00990828)
(-0.00199832 4.29867 0.0118953)
(-0.00159012 4.86015 0.0013456)
(-0.00183008 5.15686 -0.00786511)
(-0.00320593 5.23313 0.00164181)
(0.000795521 5.26153 0.00222486)
(0.00386621 5.25959 -0.00112268)
(-0.000495746 3.30695 0.0045641)
(-0.000760994 4.21584 0.00583241)
(-0.00179733 4.77749 0.00089024)
(-0.00330192 5.14689 -0.00486794)
(-0.00427164 5.25713 0.00220098)
(0.000298312 5.28828 0.0015023)
(0.00176505 5.28618 -0.0010427)
(-0.000271136 3.28015 0.00186971)
(-0.000372593 4.15264 0.00278258)
(-0.00149931 4.69803 0.000679879)
(-0.00390073 5.12111 -0.00292602)
(-0.00483139 5.27687 0.00224304)
(-0.000119683 5.31302 0.00105526)
(0.000992155 5.31133 -0.00176904)
(-0.000533101 3.26471 0.00219557)
(-0.000265238 4.10607 0.00236259)
(-0.00125019 4.63162 0.00128059)
(-0.00373561 5.08282 -0.000602284)
(-0.00521765 5.29287 0.00211977)
(-5.56004e-05 5.33831 0.000769453)
(-4.57422e-05 5.33659 -0.00191113)
(1.76478e-05 3.24797 0.00173638)
(-8.76021e-05 4.06564 0.00209933)
(-0.000616233 4.57404 0.00157303)
(-0.00290457 5.03238 0.000135261)
(-0.0045524 5.29949 0.00236148)
(-0.000211898 5.35998 0.000212043)
(0.000887941 5.35924 -0.00122299)
(-0.000130429 3.23982 0.00110203)
(-0.000248054 4.03629 0.00123665)
(-0.000570944 4.52885 0.00103863)
(-0.00268039 4.98069 0.000190505)
(-0.00485876 5.30058 0.00147843)
(-0.00125243 5.38255 -0.000694843)
(0.00108555 5.38336 -0.00105815)
(-0.000887204 3.23327 0.00582709)
(-0.000986193 4.01357 0.00543817)
(-0.00107437 4.49196 0.00487872)
(-0.00240705 4.93092 0.00388747)
(-0.00461233 5.29372 0.00430217)
(-0.00171695 5.40363 0.00174119)
(7.71068e-05 5.40646 0.00133239)
(0.000821618 3.2223 -0.00150096)
(0.000544006 3.99117 8.31744e-05)
(0.000187804 4.45787 0.00108346)
(-0.000827119 4.88293 0.00168852)
(-0.00334075 5.27692 0.00268649)
(-0.0009601 5.42117 0.00104149)
(0.00117025 5.42842 0.000855629)
(0.000538085 3.2216 -0.00334986)
(0.000633331 3.97782 -0.00242931)
(0.000449186 4.4335 -0.00122596)
(-0.000227517 4.84501 -0.000123064)
(-0.00255105 5.25572 0.00114821)
(-0.000800564 5.43874 0.000630698)
(0.0028144 5.45051 0.00268103)
(-0.000538933 3.24226 0.00159934)
(0.000701462 3.98708 0.00129885)
(0.00157937 4.43253 0.00111794)
(0.00236079 4.83102 0.001278)
(0.00183139 5.24512 0.00172376)
(0.00422517 5.466 0.000713554)
(0.00504125 5.48483 0.0015088)
(0.00228882 3.26376 -0.00166737)
(0.00311983 4.0012 -0.00362883)
(0.00358948 4.44195 -0.00479113)
(0.00633669 4.83196 -0.00602447)
(0.00662074 5.24325 -0.00628042)
(0.0110106 5.50186 -0.00693226)
(0.0158967 5.52902 -0.00605781)
(-0.0140234 3.65596 0.165798)
(-0.00716593 4.30518 0.132903)
(0.0116429 4.72009 0.109906)
(0.0428438 5.08594 0.0899219)
(0.070324 5.46099 0.0707831)
(0.108237 5.70384 0.0543447)
(0.150926 5.71461 0.0493099)
(0.0684526 3.88143 -0.111446)
(0.0903909 4.6418 -0.0634498)
(0.125113 5.08039 -0.0623965)
(0.194177 5.44878 -0.0514321)
(0.277453 5.8039 -0.0287611)
(0.364342 6.00372 -0.00233867)
(0.34907 5.91975 0.00109647)
(0.095036 3.7581 0.0299233)
(0.122222 4.45283 0.0295389)
(0.126668 4.8581 0.0350702)
(0.124932 5.21065 0.0440934)
(0.150057 5.57283 0.0440334)
(0.184509 5.81141 0.0373101)
(0.222546 5.79425 0.0150519)
(-0.108453 4.74509 -0.148826)
(-0.105801 5.16936 -0.153792)
(0.00270656 5.50891 -0.136886)
(0.161583 5.79842 -0.119954)
(0.287859 6.06166 -0.102658)
(0.425924 6.16016 -0.0769083)
(0.453711 6.03419 -0.0526514)
(0.0615767 4.63086 -0.278159)
(0.165612 5.10686 -0.0656641)
(0.267358 5.47145 -0.0542203)
(0.359224 5.78687 -0.0439672)
(0.474723 6.05252 -0.0362681)
(0.593148 6.15541 -0.0400842)
(0.590582 6.00625 -0.0203343)
(0.244189 4.02123 0.62983)
(0.274995 4.73419 0.487643)
(0.302305 5.12898 0.425469)
(0.344878 5.47894 0.312038)
(0.397716 5.80712 0.18611)
(0.452334 6.0074 0.0535892)
(0.398504 5.89821 0.0143164)
(0.43145 3.2726 0.349826)
(0.449627 4.10041 0.336617)
(0.429351 4.55945 0.279432)
(0.425284 4.95464 0.213876)
(0.425883 5.33777 0.13897)
(0.425325 5.62159 0.0766023)
(0.39431 5.71591 0.0692785)
(0.42093 3.48704 0.0925658)
(0.452622 4.25067 0.0452185)
(0.43548 4.68521 0.054626)
(0.422699 5.06018 0.0605475)
(0.3974 5.44239 0.0459466)
(0.381591 5.71651 0.0188966)
(0.325219 5.76554 0.0679029)
(0.500455 2.49589 0.0930069)
(0.439974 3.52896 0.113034)
(0.414429 4.04604 0.132995)
(0.40442 4.47716 0.105523)
(0.401689 4.90399 0.106012)
(0.403601 5.27547 0.0967211)
(0.411987 5.47313 0.0970416)
(0.420978 2.8328 -0.0437042)
(0.409424 3.78229 -0.0837275)
(0.384155 4.28155 -0.0594095)
(0.374676 4.68856 -0.0230444)
(0.371365 5.09068 0.0072948)
(0.369242 5.43272 0.0425265)
(0.36494 5.58984 0.0551522)
(0.449273 1.79839 -0.109195)
(0.329999 2.99922 -0.0475521)
(0.336209 3.5872 -0.000680709)
(0.353807 4.05335 0.0210702)
(0.36611 4.5168 0.0415419)
(0.408762 4.96055 0.0785121)
(0.44316 5.28317 0.102962)
(0.245463 2.16821 -0.153481)
(0.264029 3.30033 -0.171903)
(0.259215 3.85965 -0.137265)
(0.273584 4.29977 -0.0919092)
(0.296632 4.73992 -0.0450539)
(0.328002 5.14786 0.000839558)
(0.350865 5.41478 0.0242138)
(0.239986 1.40432 -0.143929)
(0.208023 2.70001 -0.10341)
(0.290507 3.34138 -0.0764954)
(0.291082 3.82955 -0.0377556)
(0.323533 4.30374 -0.00526286)
(0.406923 4.77305 0.0342257)
(0.435078 5.13808 0.0480148)
(0.0982977 1.71063 -0.186189)
(0.11744 2.929 -0.170055)
(0.135228 3.54307 -0.13636)
(0.178724 4.00872 -0.0922805)
(0.228231 4.4673 -0.0494365)
(0.294521 4.92159 -0.00647964)
(0.329514 5.27369 0.0189479)
(0.153228 1.33495 -0.0221099)
(0.143909 2.63123 -0.0289182)
(0.187269 3.27895 -0.0215777)
(0.252297 3.77222 -0.013916)
(0.265895 4.24871 -0.0124462)
(0.342962 4.72173 -0.0017261)
(0.405158 5.09699 -0.0298104)
(0.00470571 1.57084 -0.10105)
(0.00972452 2.80302 -0.112818)
(0.0423553 3.44674 -0.0901644)
(0.0986185 3.92229 -0.0620195)
(0.162443 4.38015 -0.039629)
(0.255435 4.83411 -0.00327354)
(0.287147 5.19336 -0.0132586)
(0.20885 1.52745 0.0959757)
(0.21009 2.76492 0.0641631)
(0.223514 3.3724 0.0371632)
(0.290699 3.84829 0.0220085)
(0.288131 4.31711 0.00894912)
(0.346935 4.78343 -0.0211451)
(0.437064 5.13873 -0.0646237)
(-0.0130714 1.57877 0.0443257)
(-0.00973841 2.79522 0.0469253)
(0.0291833 3.42657 0.0369326)
(0.0851066 3.9012 0.0321927)
(0.156128 4.36082 0.0245814)
(0.235056 4.81654 0.0144873)
(0.313182 5.17954 0.000784797)
(0.453793 1.91876 0.113367)
(0.340253 3.07616 0.0659397)
(0.339297 3.63669 0.0330579)
(0.33375 4.08995 0.0150646)
(0.331221 4.53959 0.00390654)
(0.358971 4.97073 -0.0377445)
(0.373527 5.27222 -0.0359788)
(0.065467 1.78921 0.161459)
(0.0783008 2.98154 0.160899)
(0.0951526 3.57169 0.139493)
(0.137153 4.02664 0.103269)
(0.186224 4.47606 0.0744724)
(0.248399 4.91793 0.0253782)
(0.288343 5.24625 0.0148299)
(0.587553 2.52163 -0.0764009)
(0.475461 3.52891 -0.111825)
(0.441016 4.03805 -0.126664)
(0.416066 4.46123 -0.106098)
(0.402954 4.87855 -0.108676)
(0.402649 5.25306 -0.0836812)
(0.408865 5.45352 -0.149901)
(0.30787 2.17574 0.203352)
(0.319315 3.30614 0.21067)
(0.292383 3.8631 0.173305)
(0.283737 4.29637 0.115252)
(0.283308 4.72315 0.0634001)
(0.3017 5.12312 0.0176532)
(0.301284 5.37908 0.0124753)
(0.354716 3.35858 -0.299556)
(0.3978 4.1648 -0.299724)
(0.424016 4.5877 -0.272025)
(0.42857 4.95044 -0.212384)
(0.42453 5.31265 -0.14482)
(0.421885 5.59044 -0.0809271)
(0.40017 5.66068 -0.103801)
(0.431418 2.75458 0.0316733)
(0.461848 3.71209 0.0773701)
(0.417449 4.21876 0.0497323)
(0.402164 4.6305 0.0194143)
(0.386425 5.03534 -0.0109557)
(0.376679 5.39256 -0.0314084)
(0.366754 5.56865 -0.0685256)
(0.13567 4.35925 -0.435443)
(0.187969 4.82356 -0.371555)
(0.248238 5.15876 -0.307963)
(0.323153 5.46204 -0.216415)
(0.389993 5.75223 -0.139721)
(0.451898 5.91635 -0.0583137)
(0.491813 5.84608 0.00311904)
(0.255743 3.86329 -0.177052)
(0.316262 4.59369 -0.158869)
(0.297877 4.98744 -0.142229)
(0.296106 5.32057 -0.116573)
(0.308742 5.65905 -0.0943317)
(0.374116 5.90148 -0.0577263)
(0.397714 5.84263 -0.0717564)
(0.396064 3.30312 -0.101146)
(0.445774 4.14804 -0.0697326)
(0.43962 4.58886 -0.0792184)
(0.433885 4.96775 -0.0869808)
(0.426873 5.35586 -0.0688825)
(0.402277 5.63776 -0.0373326)
(0.397437 5.68757 -0.0389582)
(0.313287 4.10632 0.343997)
(0.550655 4.73037 0.26776)
(0.463555 5.1182 0.216671)
(0.466482 5.46035 0.180716)
(0.4206 5.77933 0.130374)
(0.419007 5.96293 0.065369)
(0.352872 5.88695 0.041865)
(-0.00302493 4.76551 0.0718816)
(-0.0183307 4.87765 0.0327989)
(-0.0299591 4.9346 0.0380276)
(-0.0342011 4.96194 0.0197391)
(-0.0341401 4.98202 0.01023)
(-0.0326012 4.99341 0.00322139)
(-0.0288948 4.99893 -0.000329479)
(-0.0147773 4.09575 -0.705528)
(0.0449595 4.74356 -0.311534)
(0.075323 4.94087 -0.183248)
(0.105812 5.01097 -0.139506)
(0.115034 5.07911 -0.0743056)
(0.1246 5.11914 -0.0269079)
(0.112738 5.10931 -0.003046)
(-0.0820354 4.15286 -0.379786)
(-0.0107536 4.8154 -0.26872)
(0.0711023 5.00929 -0.088932)
(0.0866235 5.02261 -0.0175237)
(0.0950064 5.04918 0.0382037)
(0.078516 5.07245 0.0695414)
(0.0282182 5.06154 0.0479156)
(-0.196473 4.08815 -0.641254)
(-0.208004 4.7023 -0.378699)
(-0.143154 4.90658 -0.156973)
(-0.0941676 4.94116 -0.0591591)
(-0.0439666 4.98535 0.024069)
(0.0054554 5.02661 0.0613432)
(0.0246927 5.03904 0.0797122)
(-0.0412584 3.9467 -0.213554)
(-0.0108533 4.74497 -0.190087)
(0.0340304 4.99928 -0.0327547)
(0.04282 5.04405 0.0122687)
(0.0382249 5.07807 0.0310262)
(0.0301888 5.11096 0.0196918)
(0.0120445 5.11258 0.00772827)
(-0.0721079 3.97882 -0.320749)
(-0.0752687 4.72591 -0.206647)
(-0.0444584 4.98725 -0.0391195)
(-0.0260819 5.0388 0.0211188)
(0.00716894 5.07965 0.056017)
(0.0369805 5.11716 0.04448)
(0.0154128 5.12036 0.0265741)
(-0.0264912 3.81521 -0.133818)
(-0.010453 4.6975 -0.139235)
(0.0238837 5.01196 -0.0114155)
(0.0304035 5.07422 0.028575)
(0.0230571 5.10907 0.0276343)
(0.0194078 5.13835 0.0142606)
(0.0142141 5.1369 0.0244765)
(-0.0505328 3.83348 -0.210818)
(-0.060495 4.67137 -0.143054)
(-0.0371068 4.99314 -0.0111824)
(-0.0188904 5.05892 0.0264662)
(-0.00107933 5.09662 0.0390627)
(0.0169015 5.12454 0.0199972)
(0.0112044 5.12067 0.0203087)
(-0.0212541 3.70564 -0.0933246)
(-0.0113727 4.64547 -0.098051)
(0.0123509 5.0147 -0.00784581)
(0.0155062 5.10148 0.0170778)
(0.00881013 5.13762 0.0174848)
(0.00867353 5.16554 0.00522621)
(0.00828665 5.16229 0.0156347)
(-0.0426572 3.72554 -0.146508)
(-0.0519263 4.62851 -0.111335)
(-0.0319408 5.00264 -0.00386151)
(-0.0160265 5.09246 0.0280679)
(-0.00617164 5.13135 0.0245054)
(0.00733602 5.15889 0.0102584)
(0.00820855 5.1551 0.0218322)
(-0.0170075 3.60933 -0.0698539)
(-0.011091 4.58512 -0.0741131)
(0.00546645 5.00652 -0.00863445)
(0.00753738 5.12138 0.0131093)
(0.000965967 5.15938 0.0105243)
(0.00404354 5.18685 0.000284699)
(0.00456813 5.18384 0.00965186)
(-0.0328125 3.62517 -0.104514)
(-0.0394466 4.57265 -0.0875603)
(-0.0258493 4.99578 -0.00384318)
(-0.0142674 5.11353 0.0230479)
(-0.0084366 5.15407 0.0147033)
(0.00193273 5.18071 0.00256117)
(-0.000146051 5.17803 0.0169142)
(-0.012362 3.52612 -0.0528541)
(-0.00948019 4.52096 -0.0540794)
(0.00137394 4.9888 -0.00936945)
(0.00306879 5.13537 0.0103734)
(-0.00237736 5.17713 0.00589951)
(0.00141308 5.20437 -0.00206647)
(0.00129891 5.20091 0.00735688)
(-0.0226438 3.53852 -0.0752489)
(-0.0284347 4.51173 -0.0706309)
(-0.0201279 4.97852 -0.00493971)
(-0.0118753 5.12916 0.0187488)
(-0.00863356 5.17322 0.00834094)
(-0.000736614 5.19905 -0.00235505)
(0.00012626 5.19703 0.012693)
(-0.00807569 3.45936 -0.0372489)
(-0.00744943 4.45728 -0.0392393)
(-0.000915369 4.9634 -0.00852923)
(0.000535786 5.14551 0.00930863)
(-0.00374223 5.1929 0.00445713)
(0.000986709 5.22039 -0.00162931)
(0.0013169 5.21717 0.00731033)
(-0.0147533 3.46577 -0.0527601)
(-0.0203175 4.44829 -0.054143)
(-0.0159806 4.95131 -0.00537577)
(-0.010296 5.13918 0.0159553)
(-0.00800403 5.18883 0.00518941)
(-0.000944727 5.21483 -0.00276051)
(-0.000633776 5.21262 0.0101593)
(-0.00562827 3.40745 -0.0278223)
(-0.00612618 4.39688 -0.0301048)
(-0.00258975 4.93096 -0.00837829)
(-0.00153668 5.15191 0.00756972)
(-0.00497771 5.20725 0.00305443)
(0.000749118 5.23502 -0.00176989)
(0.00159788 5.23233 0.00579999)
(-0.0102644 3.41041 -0.0378836)
(-0.0153482 4.38886 -0.0410878)
(-0.0136919 4.92025 -0.00610098)
(-0.00977885 5.14633 0.0129335)
(-0.00803948 5.20395 0.00314525)
(-0.0013006 5.23036 -0.00279551)
(-0.00161985 5.22845 0.00993172)
(-0.00409563 3.36847 -0.0205801)
(-0.00499749 4.34153 -0.0230356)
(-0.00373889 4.89375 -0.00812961)
(-0.00321882 5.15508 0.00618389)
(-0.00582134 5.2209 0.00232585)
(-7.79347e-05 5.24921 -0.00121658)
(-0.000379136 5.2469 0.00573696)
(-0.0078216 3.36862 -0.028022)
(-0.0119528 4.33369 -0.0316112)
(-0.0121247 4.88411 -0.00704339)
(-0.00952089 5.14952 0.0101735)
(-0.00802617 5.21747 0.00142673)
(-0.00175588 5.24459 -0.00258393)
(-0.000189716 5.24322 0.00818854)
(-0.00297521 3.33903 -0.0155709)
(-0.00380713 4.29146 -0.0175837)
(-0.00418427 4.85333 -0.00740944)
(-0.00419296 5.15462 0.00523087)
(-0.00590533 5.23368 0.002092)
(-0.000869369 5.26243 -0.000490364)
(0.000799362 5.26031 0.00575227)
(-0.0058872 3.33758 -0.0205927)
(-0.00951124 4.28373 -0.0240334)
(-0.0107268 4.84463 -0.00699854)
(-0.00957159 5.14906 0.00848494)
(-0.00819862 5.23011 0.00100603)
(-0.00220186 5.25826 -0.00159655)
(0.000352956 5.25727 0.00744779)
(-0.00247502 3.31633 -0.0130168)
(-0.00304765 4.24703 -0.0144358)
(-0.00423833 4.81136 -0.00729989)
(-0.00482305 5.1506 0.00374267)
(-0.00581358 5.24618 0.00142758)
(-0.000193944 5.27594 -0.000416857)
(9.61552e-05 5.27389 0.00543595)
(-0.00474512 3.31435 -0.0161365)
(-0.00747509 4.2395 -0.0190827)
(-0.00952714 4.80366 -0.00728959)
(-0.00919638 5.14488 0.00633461)
(-0.00758339 5.24215 0.000317487)
(-0.00171129 5.2716 -0.00121516)
(-0.00024183 5.2702 0.00714719)
(-0.00214233 3.2979 -0.0106098)
(-0.00264711 4.20794 -0.0120042)
(-0.00439326 4.769 -0.0071165)
(-0.00561815 5.14258 0.00267214)
(-0.00672887 5.25746 0.000692242)
(-0.00139827 5.28934 -0.000697365)
(-4.98894e-05 5.28763 0.00368917)
(-0.00404941 3.29633 -0.01334)
(-0.00613274 4.20067 -0.0157255)
(-0.00876063 4.76238 -0.00762907)
(-0.00913162 5.13667 0.00418695)
(-0.00805707 5.25361 -0.000467187)
(-0.00233604 5.28498 -0.00155453)
(-0.000333319 5.28465 0.00551271)
(-0.00164627 3.28311 -0.0085064)
(-0.00207532 4.17396 -0.0094849)
(-0.0038493 4.72749 -0.00632142)
(-0.00563784 5.13031 0.00170833)
(-0.00636544 5.26764 0.000440482)
(-0.00146713 5.30137 -0.000727076)
(-6.81358e-05 5.2995 0.00318617)
(-0.00336173 3.28104 -0.0103517)
(-0.00506379 4.16609 -0.0124593)
(-0.00796542 4.72107 -0.00713476)
(-0.0088851 5.12322 0.00304002)
(-0.0082555 5.26329 -0.000527566)
(-0.00358669 5.29699 -0.000746267)
(-0.000357843 5.29664 0.00498059)
(-0.00148934 3.27174 -0.007397)
(-0.00191092 4.14464 -0.00822409)
(-0.00347732 4.68889 -0.00605245)
(-0.00575104 5.11466 0.0006023)
(-0.00640627 5.27696 -4.00261e-05)
(-0.00150961 5.31458 -0.000152894)
(0.000117573 5.3125 0.00340478)
(-0.00312604 3.26981 -0.00908948)
(-0.00449728 4.13699 -0.0108811)
(-0.00697915 4.68264 -0.00714707)
(-0.00853275 5.10682 0.00137886)
(-0.00795373 5.27269 -0.00111856)
(-0.00319775 5.30957 -0.000896856)
(-0.000500411 5.30932 0.00385102)
(-0.00136392 3.26225 -0.00626623)
(-0.00170087 4.11875 -0.00745478)
(-0.00307453 4.65319 -0.00596395)
(-0.00549581 5.09504 -0.000557822)
(-0.00620501 5.28448 -0.000907052)
(-0.00135524 5.32625 -0.00175891)
(-0.000720417 5.32421 0.000455459)
(-0.00299899 3.26044 -0.00837296)
(-0.00394177 4.11131 -0.00989018)
(-0.00609387 4.64701 -0.00734053)
(-0.00810007 5.08752 -0.000282883)
(-0.00802142 5.28045 -0.00181711)
(-0.00357767 5.32153 -0.00164418)
(-0.000526401 5.32168 0.00295971)
(-0.0008194 3.25466 -0.00407377)
(-0.001213 4.09627 -0.00558194)
(-0.00239953 4.62105 -0.00459673)
(-0.00492928 5.07303 -0.000391966)
(-0.00597199 5.2909 -0.000402138)
(-0.00117521 5.33903 -0.000501091)
(-0.000713501 5.33713 0.00115233)
(-0.00216577 3.25262 -0.00667162)
(-0.00289326 4.08852 -0.00806827)
(-0.00469252 4.61432 -0.00672897)
(-0.00694684 5.06527 -0.000883484)
(-0.00725172 5.28664 -0.00212332)
(-0.0027226 5.33364 -0.00149761)
(-0.000972671 5.33361 0.00148676)
(-0.000484883 3.24756 -0.00349627)
(-0.000935404 4.07586 -0.00438776)
(-0.00182955 4.59153 -0.00375295)
(-0.00442007 5.0483 -0.000557013)
(-0.00588098 5.29487 -0.000112688)
(-0.00144081 5.35019 -0.000359757)
(-0.000832528 5.34869 0.00186586)
(-0.00129897 3.24592 -0.00485569)
(-0.0020606 4.06867 -0.00622018)
(-0.0035977 4.58493 -0.00533786)
(-0.00606945 5.04113 -0.000764035)
(-0.00708834 5.29113 -0.00131443)
(-0.00244051 5.34526 -0.000434874)
(-0.00152722 5.34599 0.00257126)
(-0.000650807 3.24162 -0.00504162)
(-0.000945708 4.05778 -0.00483067)
(-0.0015451 4.56497 -0.00418057)
(-0.0038273 5.02224 -0.00147284)
(-0.00544436 5.29712 -0.000579434)
(-0.00076279 5.36158 -0.000616384)
(-0.00118542 5.36022 0.00242569)
(-0.000890794 3.23967 -0.0045102)
(-0.00122414 4.05082 -0.00583758)
(-0.00256695 4.55819 -0.00505053)
(-0.0050014 5.01528 -0.00152975)
(-0.0064139 5.29328 -0.00130319)
(-0.00159108 5.35615 -0.000315785)
(-0.00160312 5.35693 0.0030209)
(-0.00071811 3.23586 -0.00501732)
(-0.000925721 4.04171 -0.00521293)
(-0.00146312 4.54092 -0.00461091)
(-0.00344215 4.9957 -0.00250344)
(-0.00534706 5.29741 -0.00141853)
(-0.00079044 5.3725 -0.00148913)
(-1.2385e-05 5.37218 0.000946278)
(-1.14394e-05 3.23467 -0.00539947)
(-0.0011235 4.03549 -0.00647676)
(-0.00142198 4.53457 -0.00576449)
(-0.00419792 4.98931 -0.00289925)
(-0.00604668 5.29386 -0.00210123)
(-0.000763844 5.36754 -0.000952583)
(-0.0018475 5.36924 0.00244157)
(-0.000139491 3.23061 -0.00243979)
(-0.000453515 4.02725 -0.00344077)
(-0.00100493 4.51891 -0.00331799)
(-0.00296472 4.9691 -0.00200061)
(-0.00519164 5.29577 -0.00101375)
(-0.00102229 5.38326 -0.000931729)
(-0.00072683 5.38405 0.00235176)
(0.000341721 3.22954 -0.00466668)
(-0.000845517 4.02109 -0.00583527)
(-0.00107484 4.51245 -0.00543239)
(-0.00377939 4.96272 -0.00334683)
(-0.00591145 5.2919 -0.00235099)
(-0.000749589 5.37819 -0.00128624)
(-0.00150617 5.38067 0.00259036)
(0.00045238 3.22701 0.00148214)
(0.000189708 4.01469 1.57168e-05)
(-0.000495114 4.49912 -0.000521167)
(-0.0024553 4.94324 -6.89107e-05)
(-0.00524645 5.2922 0.000514698)
(-0.0016788 5.39335 -5.20195e-05)
(-0.00137483 5.39562 0.00242362)
(-0.000327782 3.22574 -0.00225593)
(-0.00120274 4.00837 -0.00360154)
(-0.00203805 4.49237 -0.00369401)
(-0.00398064 4.93671 -0.00236048)
(-0.00648908 5.28787 -0.00130636)
(-0.00197859 5.38857 -0.000392838)
(-0.00221975 5.39247 0.00324748)
(0.000312757 3.22481 0.00272165)
(0.000182565 4.0043 0.00156059)
(-0.000372634 4.48164 0.0010052)
(-0.00212759 4.91881 0.00124068)
(-0.00506769 5.28716 0.0019585)
(-0.00168847 5.40365 0.00183514)
(-0.000750285 5.40712 0.0055851)
(-0.0015356 3.22337 -0.000732482)
(-0.00234851 3.99807 -0.00180189)
(-0.00278616 4.47486 -0.00207805)
(-0.00421912 4.91224 -0.00123458)
(-0.00651903 5.28196 -0.000163153)
(-0.0024182 5.3985 0.000864764)
(-0.00136287 5.40317 0.0045824)
(-0.000497831 3.22265 -6.34165e-05)
(-0.00045385 3.99513 -0.000246884)
(-0.000977902 4.46586 -0.000225399)
(-0.00237484 4.89564 0.000365018)
(-0.00526515 5.28007 0.00148295)
(-0.0022536 5.41302 0.00183146)
(-0.0010438 5.4184 0.00452032)
(-0.00291054 3.22154 -0.00139993)
(-0.00332027 3.98969 -0.00189846)
(-0.00357273 4.45982 -0.00185879)
(-0.0046573 4.88983 -0.00103839)
(-0.00689273 5.27463 0.000274521)
(-0.00348877 5.40812 0.0016181)
(-0.00111641 5.41545 0.0049332)
(-0.0013037 3.22034 -0.00441248)
(-0.00108238 3.98663 -0.00359634)
(-0.00146784 4.45139 -0.00283928)
(-0.00251192 4.87401 -0.00172734)
(-0.00526513 5.27112 -0.000133428)
(-0.00287464 5.42198 0.000615294)
(-0.00053631 5.43016 0.00248211)
(-0.00312337 3.21901 -0.00366781)
(-0.00304752 3.98167 -0.00366301)
(-0.00333374 4.44585 -0.00317245)
(-0.00421605 4.86862 -0.00209913)
(-0.00651247 5.26519 -0.000372082)
(-0.00378225 5.41731 0.00134016)
(-0.00164668 5.42692 0.00420915)
(-0.00145601 3.21741 -0.00649617)
(-0.00140736 3.97837 -0.00582705)
(-0.00168184 4.43779 -0.00470915)
(-0.00245828 4.85374 -0.00333806)
(-0.00494832 5.25999 -0.00153739)
(-0.00348343 5.42997 -0.000201423)
(-0.00214024 5.44112 0.0018605)
(-0.00240531 3.21636 -0.0059356)
(-0.00198292 3.97371 -0.00554632)
(-0.00245573 4.4326 -0.00471234)
(-0.00335648 4.8486 -0.00348393)
(-0.00589396 5.25426 -0.0015721)
(-0.00449394 5.4259 0.000601584)
(-0.00131617 5.43834 0.00223429)
(-0.000665028 3.21591 -0.00456546)
(-0.000640446 3.97154 -0.00492585)
(-0.000706416 4.42597 -0.00451201)
(-0.000974725 4.83558 -0.00358825)
(-0.00289567 5.24744 -0.0020561)
(-0.00135523 5.43734 -0.00104247)
(0.00240116 5.45059 -0.000168827)
(-0.000953429 3.21328 -0.00507382)
(-0.000278055 3.9654 -0.0053764)
(-0.00134653 4.41971 -0.00471623)
(-0.00205639 4.82939 -0.00359602)
(-0.00468519 5.24092 -0.00178705)
(-0.00386119 5.43282 0.000219334)
(-0.000346499 5.44794 0.00103023)
(0.000463303 3.22479 -0.000750743)
(0.000899612 3.97362 -0.0014819)
(0.0012511 4.42276 -0.00161763)
(0.00128377 4.82589 -0.00144615)
(-1.64605e-05 5.24015 -0.000717212)
(0.00256633 5.45013 1.94835e-05)
(0.0044299 5.46754 0.001654)
(0.00168737 3.21547 -0.00114847)
(0.00156049 3.96121 -0.00218009)
(0.00191719 4.41101 -0.00212978)
(0.00174677 4.81491 -0.00196574)
(-0.000497864 5.22948 -0.000958501)
(0.0014225 5.44272 0.000301577)
(0.00329049 5.45986 0.00105555)
(0.00151952 3.24484 -3.04318e-05)
(0.00251976 3.98523 -0.000414895)
(0.00384721 4.42881 -0.000676742)
(0.00516899 4.82523 -0.000761132)
(0.00513296 5.23839 8.82671e-05)
(0.00796196 5.46741 0.00155892)
(0.00889244 5.48704 0.00380441)
(0.00608135 3.22654 0.00577333)
(0.00729238 3.96603 0.00409025)
(0.00700457 4.41121 0.00307248)
(0.00763345 4.80904 0.00264766)
(0.00493785 5.2237 0.00313413)
(0.00680017 5.45641 0.004722)
(0.0122576 5.47716 0.00697941)
(0.00127942 3.25813 -0.01445)
(0.00203385 3.99708 -0.0125074)
(0.00456879 4.43733 -0.010498)
(0.00769485 4.82833 -0.00871076)
(0.00822443 5.239 -0.00614974)
(0.0112005 5.48409 -0.00373454)
(0.0124938 5.51047 -0.000258608)
(0.0143433 3.24181 0.00451601)
(0.0185339 3.98102 0.00350834)
(0.0175453 4.42203 0.00225098)
(0.0175584 4.81382 0.00153114)
(0.0140505 5.2258 0.00194125)
(0.015497 5.47536 0.00317837)
(0.0128249 5.5017 0.00610656)
(0.00582419 3.26308 -0.0122597)
(0.00572369 4.00386 -0.0107285)
(0.010003 4.44385 -0.0106991)
(0.0144141 4.83205 -0.0108744)
(0.0173314 5.24018 -0.00962649)
(0.0205089 5.50233 -0.00910404)
(0.0224431 5.53115 -0.00859482)
(0.0298709 3.24713 0.00769259)
(0.0346455 3.99019 0.00376102)
(0.0314993 4.42932 0.0013429)
(0.0304778 4.81621 4.31207e-05)
(0.0245854 5.22437 5.65412e-05)
(0.0247132 5.48975 0.0014247)
(0.0226378 5.52194 0.00189184)
(0.0229342 3.24179 0.0762504)
(0.0188135 4.00091 0.0479043)
(0.0213165 4.45012 0.0353464)
(0.0256071 4.84408 0.0232147)
(0.0337802 5.25716 0.0109793)
(0.0433066 5.5412 -0.000234514)
(0.0468123 5.57226 -0.00661418)
(0.0346133 3.2659 -0.000998826)
(0.0342341 4.01066 -0.00193683)
(0.0356815 4.44804 -0.00410864)
(0.0350553 4.83105 -0.00575761)
(0.0340113 5.23454 -0.00610945)
(0.0378788 5.51647 -0.00349358)
(0.040505 5.54727 0.00164065)
(0.052286 3.33052 0.277091)
(0.0483731 4.0819 0.204453)
(0.0432189 4.54555 0.1598)
(0.0505649 4.95144 0.12114)
(0.0669884 5.36807 0.0830525)
(0.0905764 5.65327 0.0479238)
(0.123483 5.68589 0.0254621)
(-0.313036 3.93899 0.143962)
(-0.343548 4.46652 0.160022)
(-0.270376 4.86226 0.114353)
(-0.171724 5.21817 0.0754667)
(-0.0542861 5.56403 0.0502056)
(0.0579215 5.77322 0.0281916)
(0.170166 5.76297 0.00145577)
(-0.0258152 3.35921 0.0614983)
(-0.0606124 4.07421 0.0604386)
(-0.0394846 4.50802 0.0490154)
(-0.0216737 4.89022 0.0372308)
(0.00160887 5.28915 0.0264943)
(0.0340285 5.57747 0.0164758)
(0.060978 5.61313 0.00914911)
(0.149301 4.64745 -0.080692)
(0.200169 4.87463 -0.120512)
(0.141392 4.90896 -0.0846922)
(0.0879043 4.93885 -0.0550232)
(0.0443075 4.97175 -0.0296942)
(0.0111676 4.99208 -0.00852824)
(-0.00663181 5.00116 0.00341852)
(-0.0123647 4.61987 -0.174834)
(-0.0222865 4.84927 -0.234021)
(-0.016266 4.89868 -0.16229)
(-0.0115922 4.93307 -0.102434)
(-0.00770436 4.96397 -0.0560492)
(-0.0040134 4.98595 -0.0219144)
(-0.000482895 4.99744 -0.00333409)
(-0.160509 4.60967 -0.0822834)
(-0.218581 4.84251 -0.11294)
(-0.151566 4.89334 -0.0788652)
(-0.0962148 4.92994 -0.0501524)
(-0.0534552 4.9624 -0.0280614)
(-0.0222112 4.98512 -0.0119292)
(-0.00489864 4.99682 -0.00313243)
(-0.155639 4.61468 0.0836045)
(-0.212288 4.84728 0.112503)
(-0.147714 4.89683 0.0784548)
(-0.0939374 4.93208 0.0497114)
(-0.0522155 4.96345 0.0274086)
(-0.0215982 4.98553 0.0110628)
(-0.0047577 4.997 0.00185215)
(-0.0162008 4.62185 0.172814)
(-0.0255836 4.85068 0.231567)
(-0.0181908 4.89952 0.161196)
(-0.0128971 4.93338 0.101942)
(-0.00845917 4.96394 0.0559086)
(-0.0044933 4.98578 0.0217855)
(-0.00167593 4.99721 0.00265771)
(0.149907 4.64876 0.079398)
(0.201498 4.87594 0.118922)
(0.141748 4.90944 0.0835852)
(0.0883147 4.93969 0.0542659)
(0.0448603 4.97244 0.0295536)
(0.0122255 4.99258 0.00879759)
(-0.00397219 5.00216 -0.00211126)
(-0.183323 4.08977 0.647256)
(-0.193414 4.70546 0.390731)
(-0.132916 4.90826 0.162811)
(-0.0827564 4.94165 0.0604077)
(-0.0352771 4.9848 -0.0254657)
(0.0139561 5.02592 -0.0631622)
(0.0373555 5.03824 -0.081892)
(-0.079807 4.1479 0.386452)
(-0.00943128 4.81196 0.274456)
(0.0725107 5.00346 0.0906624)
(0.0893481 5.01995 0.0161847)
(0.0975985 5.04718 -0.0395466)
(0.0828575 5.07168 -0.0681689)
(0.0233974 5.06204 -0.0482147)
(-0.0591116 3.97689 0.304279)
(-0.0664742 4.72315 0.205464)
(-0.0398285 4.98342 0.0375537)
(-0.0198941 5.03576 -0.0242473)
(0.014597 5.07712 -0.0608727)
(0.0395873 5.11397 -0.0427948)
(0.0524226 5.12193 -0.0226028)
(-0.0227411 3.81434 0.124374)
(-0.00646056 4.69695 0.123312)
(0.0278844 5.00922 0.00758562)
(0.0328781 5.07172 -0.0307495)
(0.0294614 5.10699 -0.0270382)
(0.0211506 5.13623 -0.0121868)
(0.0264376 5.13486 -0.0087329)
(-0.0124847 3.61041 0.0527293)
(-0.00626153 4.58683 0.0533069)
(0.0101367 5.00554 -0.00163676)
(0.01148 5.11899 -0.0250195)
(0.00817089 5.15709 -0.0106959)
(0.00663399 5.18468 -0.00182746)
(0.012854 5.18151 -0.00524294)
(-0.00576544 3.46664 0.0252783)
(-0.00485606 4.46262 0.029161)
(0.00210788 4.96629 -0.00094918)
(0.00305126 5.14526 -0.016913)
(0.000736743 5.1919 -0.00390197)
(0.00301538 5.21925 0.000471776)
(0.0067673 5.21632 -0.00478456)
(-0.00220445 3.37797 0.0126694)
(-0.00280699 4.34859 0.0153642)
(-0.000849586 4.89969 0.000484379)
(-0.000657785 5.15666 -0.0105928)
(-0.00261802 5.22039 0.00018461)
(0.00153684 5.24827 0.00182779)
(0.00413846 5.24602 -0.00237706)
(-0.00104241 3.32447 0.00733994)
(-0.00135378 4.25421 0.00890125)
(-0.0018229 4.81872 0.00153828)
(-0.00272668 5.15344 -0.00599935)
(-0.00362736 5.24529 0.00242056)
(0.00089265 5.2744 0.00240842)
(0.00244713 5.27227 -0.000353754)
(-0.00044327 3.29156 0.00358328)
(-0.000559857 4.18177 0.00450991)
(-0.00166209 4.73631 0.00117004)
(-0.00365947 5.13556 -0.00334869)
(-0.00443856 5.26719 0.00284299)
(0.000189608 5.30002 0.00168595)
(0.00204734 5.29817 -0.000514367)
(-0.000293087 3.27179 0.00100602)
(-0.00018052 4.12769 0.00170883)
(-0.00131884 4.66306 0.000442489)
(-0.00393415 5.1032 -0.00196453)
(-0.00503455 5.28536 0.00200171)
(0.000222512 5.3251 0.000672878)
(0.000322583 5.32294 -0.00157098)
(-0.000744419 3.25606 0.00357799)
(-0.000396373 4.08515 0.0034685)
(-0.00132763 4.60172 0.00242494)
(-0.00349888 5.05871 0.000300164)
(-0.00520652 5.2972 0.00279789)
(-0.000860524 5.34909 0.000922807)
(0.00118303 5.34807 -0.000632274)
(0.000347739 3.24336 -0.000189326)
(0.000212125 4.04981 0.000385259)
(-0.000297225 4.55016 0.000335875)
(-0.00259347 5.00643 -0.000532721)
(-0.00471335 5.30087 0.00139794)
(-0.000206225 5.37126 -0.000526445)
(0.00118034 5.37111 -0.00129362)
(-0.000858508 3.23726 0.00441987)
(-0.000854987 4.02485 0.00395438)
(-0.000936817 4.50997 0.0033103)
(-0.00276749 4.95569 0.00219368)
(-0.00476866 5.29839 0.00280953)
(-0.00133485 5.39356 8.74598e-05)
(0.00196879 5.39506 -0.00103712)
(-0.000212904 3.22743 0.00330775)
(-0.000408931 4.00196 0.00397858)
(-0.000559044 4.47428 0.00410216)
(-0.00157185 4.90631 0.00377796)
(-0.00400827 5.28639 0.00432064)
(-0.00141714 5.41278 0.00209039)
(-0.000456895 5.41763 0.00156165)